 &FCI NORB=26,NELEC=8,MS2=0,
  ORBSYM=1,5,3,2,1,7,6,5,1,2,3,1,6,7,5,4,1,5,3,2,8,5,1,7,6,5,
  ISYM=1,
 &END
0.6649032760698491    1  1  1  1
0.05751721634971359    2  1  2  1
0.4419699627878872    2  2  1  1
0.4473772409932847    2  2  2  2
0.09174580199067622    3  1  3  1
0.03442534942872397    3  2  3  2
0.5384313567371382    3  3  1  1
0.4182695767548891    3  3  2  2
0.4980872201636134    3  3  3  3
0.09174580199067625    4  1  4  1
0.03442534942872399    4  2  4  2
0.0206489765454828    4  3  4  3
0.5384313567371382    4  4  1  1
0.4182695767548892    4  4  2  2
0.4567892670726479    4  4  3  3
0.4980872201636137    4  4  4  4
0.1247346754239378    5  1  1  1
0.005929874598958333    5  1  2  2
0.06320717713754689    5  1  3  3
0.06320717713754695    5  1  4  4
0.06588030705081316    5  1  5  1
-0.08110565208799626    5  2  2  1
0.150693597059411    5  2  5  2
-0.001151745465488706    5  3  3  1
0.01745233784637221    5  3  5  3
-0.001151745465488716    5  4  4  1
0.01745233784637221    5  4  5  4
0.4747555494167755    5  5  1  1
0.4390710470625881    5  5  2  2
0.4211363027306264    5  5  3  3
0.4211363027306266    5  5  4  4
0.03339329627429618    5  5  5  1
0.4511809307084726    5  5  5  5
0.02861231061202563    6  1  3  2
0.02584082701875179    6  1  6  1
0.05589503858437243    6  2  3  1
-0.0210201672737628    6  2  5  3
0.05898002338940602    6  2  6  2
0.07052951081469422    6  3  2  1
-0.09506662279758148    6  3  5  2
0.1005209589567087    6  3  6  3
0.01042230067334954    6  4  6  4
-0.02495273889534248    6  5  3  2
-0.01749832230331276    6  5  6  1
0.02667895411898258    6  5  6  5
0.425551291914457    6  6  1  1
0.3891902054376312    6  6  2  2
0.4139709522175048    6  6  3  3
0.3852325505236289    6  6  4  4
0.02107614770994429    6  6  5  1
0.382419567537169    6  6  5  5
0.3787951524589223    6  6  6  6
0.02861231061202557    7  1  4  2
0.02584082701875166    7  1  7  1
0.05589503858437234    7  2  4  1
-0.02102016727376277    7  2  5  4
0.05898002338940582    7  2  7  2
0.01042230067334952    7  3  6  4
0.0104223006733495    7  3  7  3
0.07052951081469405    7  4  2  1
-0.09506662279758128    7  4  5  2
0.0796763576100095    7  4  6  3
0.1005209589567083    7  4  7  4
-0.02495273889534244    7  5  4  2
-0.0174983223033127    7  5  7  1
0.0266789541189825    7  5  7  5
0.01436920084693805    7  6  4  3
0.01466510557131259    7  6  7  6
0.4255512919144559    7  7  1  1
0.3891902054376303    7  7  2  2
0.385232550523628    7  7  3  3
0.413970952217504    7  7  4  4
0.02107614770994416    7  7  5  1
0.3824195675371683    7  7  5  5
0.3494649413162965    7  7  6  6
0.3787951524589211    7  7  7  7
0.02413587430387107    8  1  2  1
-0.02398350305540133    8  1  5  2
0.03025663303347921    8  1  6  3
0.03025663303347909    8  1  7  4
0.01389016761932217    8  1  8  1
0.08307871410107455    8  2  1  1
0.05573969784861869    8  2  2  2
0.07065470649017153    8  2  3  3
0.07065470649017105    8  2  4  4
0.01383280949738006    8  2  5  1
0.05065884048228936    8  2  5  5
0.0491854215038325    8  2  6  6
0.04918542150383242    8  2  7  7
0.03011102608799616    8  2  8  2
0.01440097357493701    8  3  3  2
0.01312653472998866    8  3  6  1
-0.006233183627113941    8  3  6  5
0.008483700225228638    8  3  8  3
0.01440097357493702    8  4  4  2
0.01312653472998859    8  4  7  1
-0.006233183627113895    8  4  7  5
0.00848370022522864    8  4  8  4
0.003277380482399888    8  5  2  1
-0.01358792176945168    8  5  5  2
0.004765458838236484    8  5  6  3
0.004765458838236348    8  5  7  4
-0.004803356138216249    8  5  8  1
0.02428823303525368    8  5  8  5
0.0205339715318647    8  6  3  1
-0.001283968806828518    8  6  5  3
0.01212994231972052    8  6  6  2
0.01165228470745641    8  6  8  6
0.02053397153186453    8  7  4  1
-0.001283968806828485    8  7  5  4
0.01212994231972035    8  7  7  2
0.01165228470745645    8  7  8  7
0.2852490728814827    8  8  1  1
-1.43754366049853e-15    8  8  2  1
0.2963732464204676    8  8  2  2
0.2753313383853586    8  8  3  3
0.2753313383853562    8  8  4  4
-0.0006872104616562765    8  8  5  1
2.080367128565186e-15    8  8  5  2
0.2999092046838241    8  8  5  5
-2.244190076827746e-15    8  8  6  3
0.2716286004298893    8  8  6  6
-3.676312726463848e-15    8  8  7  4
0.2716286004298947    8  8  7  7
-2.111361758171115e-15    8  8  8  1
-0.0008893945370774842    8  8  8  2
-1.760906958442332e-14    8  8  8  5
0.2873617229017572    8  8  8  8
-0.0667110553494334    9  1  1  1
-0.01076674526851858    9  1  2  2
-0.02495159311134684    9  1  3  3
-0.02495159311134683    9  1  4  4
-0.03691030170911722    9  1  5  1
-0.03260121089519172    9  1  5  5
-0.01089429872487931    9  1  6  6
-0.01089429872487919    9  1  7  7
-0.002594143641711484    9  1  8  2
-0.00960056332379115    9  1  8  8
0.03167354007552542    9  1  9  1
0.01223757556425157    9  2  2  1
-0.0112497630192368    9  2  5  2
0.01486031518018419    9  2  6  3
0.01486031518018411    9  2  7  4
0.009860717197783834    9  2  8  1
-0.01719172209637232    9  2  8  5
-5.389460579208194e-15    9  2  8  8
0.0171101064964658    9  2  9  2
0.0194441206003112    9  3  3  1
-0.007669816373194676    9  3  5  3
0.01769004677693519    9  3  6  2
0.007331140806175532    9  3  8  6
0.01492581427233067    9  3  9  3
0.01944412060031119    9  4  4  1
-0.00766981637319468    9  4  5  4
0.01769004677693517    9  4  7  2
0.007331140806175513    9  4  8  7
0.01492581427233067    9  4  9  4
-0.1261681814122605    9  5  1  1
-0.06047811617201719    9  5  2  2
-0.08746170433956894    9  5  3  3
-0.08746170433956896    9  5  4  4
-0.03885734139280934    9  5  5  1
-0.06997879681455449    9  5  5  5
-0.05447667908423704    9  5  6  6
-0.05447667908423665    9  5  7  7
-0.03462616279810099    9  5  8  2
0.0006228515754667476    9  5  8  8
0.02105712607777737    9  5  9  1
0.05291179878008368    9  5  9  5
0.005987662030269037    9  6  3  2
0.004402108807824004    9  6  6  1
-0.001761580357997232    9  6  6  5
0.00516319133409195    9  6  8  3
0.007052777423855291    9  6  9  6
0.005987662030269012    9  7  4  2
0.004402108807823978    9  7  7  1
-0.001761580357997167    9  7  7  5
0.00516319133409195    9  7  8  4
0.007052777423855306    9  7  9  7
0.04059954860753845    9  8  2  1
-0.08166717749137509    9  8  5  2
0.0502182804438747    9  8  6  3
0.05021828044387426    9  8  7  4
0.005619089444178093    9  8  8  1
-2.967678186527323e-15    9  8  8  2
0.03445693552432819    9  8  8  5
-2.111678887306567e-14    9  8  8  8
-0.01284397666982611    9  8  9  2
0.0831108072898506    9  8  9  8
0.394731028969419    9  9  1  1
0.3404654584070441    9  9  2  2
0.354530774624435    9  9  3  3
0.3545307746244351    9  9  4  4
0.03451550385850521    9  9  5  1
0.3526956907964028    9  9  5  5
0.3190551150205344    9  9  6  6
0.319055115020534    9  9  7  7
0.02671204620688298    9  9  8  2
0.2772415773071928    9  9  8  8
-0.02247410776227476    9  9  9  1
-0.04143788746205822    9  9  9  5
-1.216095366768366e-15    9  9  9  8
0.3151446684963917    9  9  9  9
-0.03535033234943341    10  1  4  1
-0.007300150791675951    10  1  5  4
-0.01365737587211665    10  1  7  2
-0.009612994555400021    10  1  8  7
0.001220593119605018    10  1  9  4
0.0249382747591701    10  1  10  1
-0.006072911573047307    10  2  4  2
-0.005588910733311217    10  2  7  1
-0.00120107801693757    10  2  7  5
-0.005774752509526337    10  2  8  4
-0.003939165203080554    10  2  9  7
0.009496744963790587    10  2  10  2
-0.003710032493899299    10  3  4  3
-0.0005509290762791113    10  3  7  6
0.006816139229748859    10  3  10  3
-0.1350547245045466    10  4  1  1
-0.07328610448645093    10  4  2  2
-0.09212634176230028    10  4  3  3
-0.09954640675009889    10  4  4  4
-0.03673334380952435    10  4  5  1
-0.08153911681348723    10  4  5  5
-0.06127768811851196    10  4  6  6
-0.06237954627106983    10  4  7  7
-0.0283910890818296    10  4  8  2
-0.02524398837713241    10  4  8  8
0.02449983375500504    10  4  9  1
0.04181148740133247    10  4  9  5
-0.04898118642919594    10  4  9  9
0.06389477484439368    10  4  10  4
-0.02123246577639941    10  5  4  1
-0.001756759473826943    10  5  5  4
-0.01250891454244657    10  5  7  2
0.000680811238529589    10  5  8  7
-0.00133908874072375    10  5  9  4
0.005944249977352448    10  5  10  1
0.01179150352759027    10  5  10  5
-0.0006237169046347033    10  6  6  4
-0.0006237169046346877    10  6  7  3
0.005176781264656483    10  6  10  6
-0.01214906212534437    10  7  2  1
0.002976448458076007    10  7  5  2
-0.01191605962842533    10  7  6  3
-0.01316349343769456    10  7  7  4
-0.01185464664456671    10  7  8  1
0.01217116708952282    10  7  8  5
1.594427714857183e-15    10  7  8  8
-0.0122192393410452    10  7  9  2
0.01316742203073565    10  7  9  8
0.03184909020113632    10  7  10  7
-0.01065982753052342    10  8  4  2
-0.00916456031201849    10  8  7  1
0.008590922450326055    10  8  7  5
-0.003011646881222636    10  8  8  4
0.002027858782340171    10  8  9  7
0.001606496487860558    10  8  10  2
0.006767569419919668    10  8  10  8
0.01831466533370237    10  9  4  1
0.004606280038586138    10  9  5  4
0.00435899807892177    10  9  7  2
0.005709196685559902    10  9  8  7
0.006860597024505163    10  9  9  4
-0.00407413062764335    10  9  10  1
-0.006068211571362551    10  9  10  5
0.01361244603533114    10  9  10  9
0.4230422373776166    10  10  1  1
0.3468601086711966    10  10  2  2
0.3713322299503714    10  10  3  3
0.3979832775433281    10  10  4  4
0.04088215656723791    10  10  5  1
0.3497660018245992    10  10  5  5
0.3257295189609779    10  10  6  6
0.3481802440558533    10  10  7  7
0.04625529346304165    10  10  8  2
0.2494435082423248    10  10  8  8
-0.01720450119041857    10  10  9  1
-0.05933657133440198    10  10  9  5
0.3083488391834575    10  10  9  9
-0.05732731530350112    10  10  10  4
0.3487699917237967    10  10  10  10
-0.03535033234943344    11  1  3  1
-0.007300150791675962    11  1  5  3
-0.01365737587211673    11  1  6  2
-0.009612994555400054    11  1  8  6
0.001220593119605015    11  1  9  3
0.02493827475917014    11  1  11  1
-0.00607291157304729    11  2  3  2
-0.005588910733311245    11  2  6  1
-0.001201078016937554    11  2  6  5
-0.005774752509526334    11  2  8  3
-0.003939165203080556    11  2  9  6
0.009496744963790583    11  2  11  2
-0.1350547245045467    11  3  1  1
-0.07328610448645097    11  3  2  2
-0.09954640675009881    11  3  3  3
-0.09212634176230031    11  3  4  4
-0.03673334380952437    11  3  5  1
-0.08153911681348715    11  3  5  5
-0.06237954627107021    11  3  6  6
-0.06127768811851159    11  3  7  7
-0.02839108908182961    11  3  8  2
-0.02524398837713238    11  3  8  8
0.02449983375500505    11  3  9  1
0.04181148740133248    11  3  9  5
-0.04898118642919592    11  3  9  9
0.05026249638489601    11  3  10  4
-0.05902407919608953    11  3  10  10
0.06389477484439368    11  3  11  3
-0.00371003249389931    11  4  4  3
-0.0005509290762791154    11  4  7  6
0.006816139229748859    11  4  10  3
0.006816139229748861    11  4  11  4
-0.02123246577639944    11  5  3  1
-0.001756759473826937    11  5  5  3
-0.01250891454244657    11  5  6  2
0.0006808112385295551    11  5  8  6
-0.001339088740723757    11  5  9  3
0.005944249977352477    11  5  11  1
0.01179150352759028    11  5  11  5
-0.01214906212534456    11  6  2  1
0.002976448458076273    11  6  5  2
-0.01316349343769498    11  6  6  3
-0.01191605962842548    11  6  7  4
-0.0118546466445668    11  6  8  1
0.01217116708952279    11  6  8  5
1.634760035673644e-15    11  6  8  8
-0.01221923934104523    11  6  9  2
0.01316742203073549    11  6  9  8
0.0214955276718234    11  6  10  7
0.03184909020113642    11  6  11  6
-0.0006237169046346754    11  7  6  4
-0.0006237169046346594    11  7  7  3
0.005176781264656485    11  7  10  6
0.005176781264656489    11  7  11  7
-0.0106598275305234    11  8  3  2
-0.009164560312018521    11  8  6  1
0.00859092245032606    11  8  6  5
-0.003011646881222642    11  8  8  3
0.002027858782340167    11  8  9  6
0.001606496487860572    11  8  11  2
0.006767569419920081    11  8  11  8
0.01831466533370236    11  9  3  1
0.00460628003858614    11  9  5  3
0.004358998078921776    11  9  6  2
0.00570919668555989    11  9  8  6
0.006860597024505167    11  9  9  3
-0.004074130627643361    11  9  11  1
-0.006068211571362558    11  9  11  5
0.01361244603533113    11  9  11  9
0.01332552379647835    11  10  4  3
0.01122536254743801    11  10  7  6
0.0008483819462941864    11  10  10  3
0.0008483819462941792    11  10  11  4
0.01409139407936098    11  10  11  10
0.4230422373776168    11  11  1  1
0.3468601086711967    11  11  2  2
0.397983277543328    11  11  3  3
0.3713322299503715    11  11  4  4
0.04088215656723793    11  11  5  1
0.3497660018245992    11  11  5  5
0.3481802440558538    11  11  6  6
0.3257295189609773    11  11  7  7
0.04625529346304168    11  11  8  2
0.2494435082423248    11  11  8  8
-0.01720450119041859    11  11  9  1
-0.059336571334402    11  11  9  5
0.3083488391834575    11  11  9  9
-0.05902407919608953    11  11  10  4
0.3205872035650748    11  11  10  10
-0.05732731530350108    11  11  11  3
0.3487699917237966    11  11  11  11
0.07118599923967944    12  1  1  1
0.04939655192875152    12  1  2  2
0.04653617546988349    12  1  3  3
0.04653617546988359    12  1  4  4
0.01740579547898792    12  1  5  1
0.05582279600514892    12  1  5  5
0.03452785800688229    12  1  6  6
0.03452785800688202    12  1  7  7
0.01603426927817808    12  1  8  2
0.01626630533943731    12  1  8  8
-0.01822293546153064    12  1  9  1
-0.02580091687419324    12  1  9  5
0.0273903298482895    12  1  9  9
-0.03309029726693918    12  1  10  4
0.02938742167268116    12  1  10  10
-0.03309029726693918    12  1  11  3
0.02938742167268119    12  1  11  11
0.02491711629685333    12  1  12  1
0.04055505544979505    12  2  2  1
-0.06650357327354811    12  2  5  2
0.04370756647410477    12  2  6  3
0.04370756647410458    12  2  7  4
0.01842680044991564    12  2  8  1
-0.01146625484182328    12  2  8  5
1.531327148418526e-15    12  2  8  8
0.0198546828772565    12  2  9  2
0.01578436423056663    12  2  9  8
-0.02324690097369242    12  2  10  7
-0.02324690097369259    12  2  11  6
0.05369319317686125    12  2  12  2
-0.0074831416431975    12  3  3  1
0.0003963029444696987    12  3  5  3
-0.003785731111343077    12  3  6  2
0.002684937823907    12  3  8  6
-0.008951926796045848    12  3  9  3
-0.00939574713698706    12  3  11  1
0.007989283746844463    12  3  11  5
-0.00915633536205584    12  3  11  9
0.01989493672362281    12  3  12  3
-0.007483141643197489    12  4  4  1
0.0003963029444696923    12  4  5  4
-0.003785731111343095    12  4  7  2
0.002684937823907004    12  4  8  7
-0.008951926796045832    12  4  9  4
-0.009395747136987072    12  4  10  1
0.007989283746844456    12  4  10  5
-0.009156335362055842    12  4  10  9
0.01989493672362281    12  4  12  4
-0.03750025461821534    12  5  1  1
-0.07104575102956319    12  5  2  2
-0.04231599720732033    12  5  3  3
-0.04231599720732029    12  5  4  4
0.01299325276979081    12  5  5  1
-0.06316181414924144    12  5  5  5
-0.0398184040777607    12  5  6  6
-0.03981840407776045    12  5  7  7
-0.0209558280104819    12  5  8  2
-0.01541003892012876    12  5  8  8
-0.004609211974464008    12  5  9  1
0.02022802896486201    12  5  9  5
-0.02348347951071334    12  5  9  9
0.02124490155087035    12  5  10  4
-0.02597286298569372    12  5  10  10
0.02124490155087037    12  5  11  3
-0.02597286298569383    12  5  11  11
-0.01822958987803569    12  5  12  1
0.03997790827964758    12  5  12  5
0.003936308674648309    12  6  3  2
0.002378186152543062    12  6  6  1
0.0006921817136851093    12  6  6  5
0.00418453619825681    12  6  8  3
0.003381563395936362    12  6  9  6
-0.0104032142903241    12  6  11  2
-0.0008833939995398417    12  6  11  8
0.0141588606986421    12  6  12  6
0.00393630867464823    12  7  4  2
0.002378186152542941    12  7  7  1
0.0006921817136852557    12  7  7  5
0.004184536198256774    12  7  8  4
0.003381563395936345    12  7  9  7
-0.01040321429032409    12  7  10  2
-0.0008833939995397116    12  7  10  8
0.01415886069864208    12  7  12  7
0.03189090744306334    12  8  2  1
-0.05723793080033522    12  8  5  2
0.0378637604844896    12  8  6  3
0.03786376048448908    12  8  7  4
0.008864486378956872    12  8  8  1
1.696993240374312e-15    12  8  8  2
0.0133240644654961    12  8  8  5
-5.276161452183459e-15    12  8  8  8
-0.0006780129073125905    12  8  9  2
0.04359142248982992    12  8  9  8
-0.002080064022676035    12  8  10  7
-0.00208006402267667    12  8  11  6
-1.264613413987092e-15    12  8  11  11
0.02364266559996367    12  8  12  2
0.02899079213514582    12  8  12  8
-0.03418792359357354    12  9  1  1
0.01721529271411552    12  9  2  2
-0.02275583007605978    12  9  3  3
-0.02275583007605982    12  9  4  4
-0.02154185516642692    12  9  5  1
0.01391719306928153    12  9  5  5
-0.002604416588932984    12  9  6  6
-0.002604416588932859    12  9  7  7
-0.006832260940003583    12  9  8  2
0.02045517367422715    12  9  8  8
0.0002309851353300598    12  9  9  1
0.01050799063585327    12  9  9  5
-0.00353560588887563    12  9  9  9
-0.003372112600161722    12  9  10  4
-0.01826628292275918    12  9  10  10
-0.003372112600161667    12  9  11  3
-0.01826628292275907    12  9  11  11
0.009198729805188727    12  9  12  1
-0.01588905195158024    12  9  12  5
0.02965367345969041    12  9  12  9
-0.04636462148035534    12  10  4  1
0.01197231277088953    12  10  5  4
-0.04120298179849886    12  10  7  2
-0.007854462545582858    12  10  8  7
-0.018080358903899    12  10  9  4
0.006855549096957105    12  10  10  1
0.01395318663046694    12  10  10  5
-0.01280810976799673    12  10  10  9
0.01397405664211558    12  10  12  4
0.04316587233395152    12  10  12  10
-0.04636462148035535    12  11  3  1
0.01197231277088953    12  11  5  3
-0.04120298179849886    12  11  6  2
-0.007854462545582926    12  11  8  6
-0.018080358903899    12  11  9  3
0.006855549096957119    12  11  11  1
0.01395318663046696    12  11  11  5
-0.01280810976799671    12  11  11  9
0.01397405664211559    12  11  12  3
0.04316587233395149    12  11  12  11
0.4129356745808821    12  12  1  1
0.3868113364526491    12  12  2  2
0.389360915010412    12  12  3  3
0.3893609150104125    12  12  4  4
0.01775287803549162    12  12  5  1
0.3827765218095448    12  12  5  5
0.3525697858020625    12  12  6  6
0.3525697858020615    12  12  7  7
0.04972768120515852    12  12  8  2
0.2670121942461642    12  12  8  8
-0.006480678192504246    12  12  9  1
-0.05786762446920841    12  12  9  5
0.3201076110269127    12  12  9  9
-0.05472295363933057    12  12  10  4
0.3347578427634923    12  12  10  10
-0.0547229536393304    12  12  11  3
0.3347578427634919    12  12  11  11
0.03237620941633285    12  12  12  1
-0.05011395130342951    12  12  12  5
-0.003387582512171133    12  12  12  9
0.3609699299615904    12  12  12  12
-0.01907540861867231    13  1  4  2
-0.01850008481905555    13  1  7  1
0.006805303255872476    13  1  7  5
-0.01111774600441938    13  1  8  4
-0.003631936190599489    13  1  9  7
0.01000287307091077    13  1  10  2
0.006670695537576064    13  1  10  8
-0.008798508669464081    13  1  12  7
0.01865683530363002    13  1  13  1
-0.02636569751285048    13  2  4  1
0.006119720076116038    13  2  5  4
-0.02183973244997294    13  2  7  2
-0.0130108645708502    13  2  8  7
-0.006749310394073938    13  2  9  4
0.01555055212721858    13  2  10  1
-0.00255846346237904    13  2  10  5
-0.0005884488896077194    13  2  10  9
-0.01136499142774137    13  2  12  4
0.009625497691449924    13  2  12  10
0.02236317511692644    13  2  13  2
-0.005569599215368711    13  3  6  4
-0.005569599215368683    13  3  7  3
0.004789270651138656    13  3  10  6
0.004789270651138644    13  3  11  7
0.006885155688461162    13  3  13  3
-0.04691101178513619    13  4  2  1
0.05297310345237979    13  4  5  2
-0.05154431574100034    13  4  6  3
-0.06268351417173755    13  4  7  4
-0.02553710230234786    13  4  8  1
0.007465523026546518    13  4  8  5
-1.635302136759886e-15    13  4  8  8
-0.01776985296768372    13  4  9  2
-0.01557199737978632    13  4  9  8
0.03441320326636478    13  4  10  7
0.02483466196408771    13  4  11  6
-0.04353714298831605    13  4  12  2
-0.02233286917868325    13  4  12  8
0.06212150637245554    13  4  13  4
0.006386620317156842    13  5  4  2
0.002501910707237737    13  5  7  1
-0.00495877416364991    13  5  7  5
0.00404677371936424    13  5  8  4
0.006054456592474276    13  5  9  7
-0.006580580398980098    13  5  10  2
0.0005503896035437611    13  5  10  8
0.009526062901736774    13  5  12  7
-0.004096488800549128    13  5  13  1
0.01078270927095728    13  5  13  5
-0.005289791679000721    13  6  4  3
-0.002221611018893832    13  6  7  6
0.005913342481242434    13  6  10  3
0.005913342481242436    13  6  11  4
-0.0002216237042206542    13  6  11  10
0.007411467695539888    13  6  13  6
-0.1373173222515542    13  7  1  1
-0.0960345356561005    13  7  2  2
-0.1050085364503238    13  7  3  3
-0.1155881198083252    13  7  4  4
-0.02464002712601611    13  7  5  1
-0.0952540674635316    13  7  5  5
-0.07548001530654302    13  7  6  6
-0.07992323734433002    13  7  7  7
-0.03650715986254107    13  7  8  2
-0.02739555018184878    13  7  8  8
0.01457521438323003    13  7  9  1
0.04538473994239334    13  7  9  5
-0.05578847021022196    13  7  9  9
0.06186479278883598    13  7  10  4
-0.06921481803600955    13  7  10  10
0.05003810782635112    13  7  11  3
-0.06877157062756833    13  7  11  11
-0.03290741595494591    13  7  12  1
0.03244694828865451    13  7  12  5
-0.002277745632186946    13  7  12  9
-0.07378391221552104    13  7  12  12
0.07171289710214315    13  7  13  7
-0.02583261977991977    13  8  4  1
0.008247143988166806    13  8  5  4
-0.02642312728522021    13  8  7  2
-0.001549604056383537    13  8  8  7
-0.004975160273963008    13  8  9  4
0.008392836641322328    13  8  10  1
0.007295837189215328    13  8  10  5
0.001130655516460098    13  8  10  9
0.0002084721513645786    13  8  12  4
0.01932978000732922    13  8  12  10
0.0086279754237769    13  8  13  2
0.01716587036107193    13  8  13  8
-0.009466474613288924    13  9  4  2
-0.005737071014227906    13  9  7  1
0.01170318576832359    13  9  7  5
-0.001044981145427127    13  9  8  4
0.001249363275542284    13  9  9  7
-0.0003347324889835969    13  9  10  2
0.005871104247805549    13  9  10  8
0.0001239595763299573    13  9  12  7
0.001677951231524784    13  9  13  1
-0.001836022601295807    13  9  13  5
0.008666523840333604    13  9  13  9
0.05888263976847502    13  10  2  1
-0.07937543458737362    13  10  5  2
0.06888593632106838    13  10  6  3
0.08397113104574373    13  10  7  4
0.02521477775756575    13  10  8  1
0.007911680062145609    13  10  8  5
5.332106284283711e-15    13  10  8  8
0.01017993322431298    13  10  9  2
0.04707381397077441    13  10  9  8
-0.01090693066449628    13  10  10  7
-0.01093327252333128    13  10  11  6
0.03712826952636403    13  10  12  2
0.03624649492672015    13  10  12  8
-0.05348024894875499    13  10  13  4
0.08125686018200967    13  10  13  10
0.007542597362337779    13  11  6  4
0.007542597362337762    13  11  7  3
1.317092941729475e-05    13  11  10  6
1.317092941732357e-05    13  11  11  7
-0.003872098402046933    13  11  13  3
0.007843872852012594    13  11  13  11
-0.02521961346236192    13  12  4  2
-0.02012319620853192    13  12  7  1
0.02103232712689283    13  12  7  5
-0.008816232123827558    13  12  8  4
-0.002402014723767908    13  12  9  7
0.002737092577547144    13  12  10  2
0.009909043632622832    13  12  10  8
-0.0007998659527327851    13  12  12  7
0.01211911102064162    13  12  13  1
-0.003246384094615416    13  12  13  5
0.009695456957132243    13  12  13  9
0.02379438315284053    13  12  13  12
0.4345967419831053    13  13  1  1
0.380573246886366    13  13  2  2
0.386109280070753    13  13  3  3
0.4107257613352725    13  13  4  4
0.03254383043055258    13  13  5  1
0.3789823304980512    13  13  5  5
0.3442638672398333    13  13  6  6
0.3681962687978694    13  13  7  7
0.0522608230322328    13  13  8  2
0.2667865381760079    13  13  8  8
-0.01996224145280239    13  13  9  1
-0.06401794636091511    13  13  9  5
0.3169831762340332    13  13  9  9
-0.07773500483267223    13  13  10  4
0.3505829410488458    13  13  10  10
-0.07307579555072707    13  13  11  3
0.3281096216696662    13  13  11  11
0.04348993497491856    13  13  12  1
-0.04294462045435764    13  13  12  5
0.001135100592732703    13  13  12  9
0.3488429180128052    13  13  12  12
-0.09021508554874784    13  13  13  7
0.37686927637185    13  13  13  13
-0.01907540861867222    14  1  3  2
-0.01850008481905555    14  1  6  1
0.006805303255872435    14  1  6  5
-0.01111774600441935    14  1  8  3
-0.003631936190599489    14  1  9  6
0.01000287307091076    14  1  11  2
0.00667069553757602    14  1  11  8
-0.00879850866946413    14  1  12  6
0.01865683530362995    14  1  14  1
-0.02636569751285027    14  2  3  1
0.006119720076115921    14  2  5  3
-0.0218397324499728    14  2  6  2
-0.0130108645708502    14  2  8  6
-0.00674931039407387    14  2  9  3
0.01555055212721854    14  2  11  1
-0.002558463462379084    14  2  11  5
-0.0005884488896077218    14  2  11  9
-0.01136499142774137    14  2  12  3
0.009625497691449752    14  2  12  11
0.02236317511692628    14  2  14  2
-0.04691101178513594    14  3  2  1
0.0529731034523794    14  3  5  2
-0.06268351417173743    14  3  6  3
-0.05154431574099991    14  3  7  4
-0.02553710230234777    14  3  8  1
0.007465523026546544    14  3  8  5
-1.686259638866705e-15    14  3  8  8
-0.01776985296768367    14  3  9  2
-0.01557199737978611    14  3  9  8
0.02483466196408754    14  3  10  7
0.03441320326636498    14  3  11  6
-0.04353714298831588    14  3  12  2
-0.0223328691786831    14  3  12  8
0.04835119499553302    14  3  13  4
-0.04573605214466081    14  3  13  10
0.06212150637245512    14  3  14  3
-0.005569599215368684    14  4  6  4
-0.005569599215368656    14  4  7  3
0.00478927065113866    14  4  10  6
0.004789270651138648    14  4  11  7
0.006885155688461151    14  4  13  3
-0.003872098402046913    14  4  13  11
0.006885155688461137    14  4  14  4
0.006386620317156692    14  5  3  2
0.002501910707237655    14  5  6  1
-0.004958774163649819    14  5  6  5
0.004046773719364201    14  5  8  3
0.006054456592474279    14  5  9  6
-0.006580580398980095    14  5  11  2
0.0005503896035437967    14  5  11  8
0.009526062901736793    14  5  12  6
-0.004096488800549056    14  5  14  1
0.01078270927095724    14  5  14  5
-0.1373173222515544    14  6  1  1
-0.09603453565610057    14  6  2  2
-0.1155881198083253    14  6  3  3
-0.1050085364503241    14  6  4  4
-0.02464002712601622    14  6  5  1
-0.0952540674635316    14  6  5  5
-0.07992323734433063    14  6  6  6
-0.07548001530654257    14  6  7  7
-0.03650715986254111    14  6  8  2
-0.02739555018184883    14  6  8  8
0.01457521438323008    14  6  9  1
0.04538473994239342    14  6  9  5
-0.05578847021022203    14  6  9  9
0.05003810782635119    14  6  10  4
-0.06877157062756824    14  6  10  10
0.06186479278883603    14  6  11  3
-0.0692148180360096    14  6  11  11
-0.03290741595494595    14  6  12  1
0.03244694828865452    14  6  12  5
-0.002277745632186928    14  6  12  9
-0.07378391221552102    14  6  12  12
0.05688996171106382    14  6  13  7
-0.08451912279068251    14  6  13  13
0.07171289710214288    14  6  14  6
-0.005289791679000639    14  7  4  3
-0.002221611018893736    14  7  7  6
0.005913342481242434    14  7  10  3
0.005913342481242434    14  7  11  4
-0.0002216237042205733    14  7  11  10
0.007411467695539874    14  7  13  6
0.007411467695539864    14  7  14  7
-0.0258326197799195    14  8  3  1
0.008247143988166819    14  8  5  3
-0.02642312728522042    14  8  6  2
-0.001549604056383609    14  8  8  6
-0.004975160273962984    14  8  9  3
0.00839283664132221    14  8  11  1
0.007295837189215328    14  8  11  5
0.001130655516460053    14  8  11  9
0.0002084721513645691    14  8  12  3
0.01932978000732921    14  8  12  11
0.008627975423776838    14  8  14  2
0.01716587036107309    14  8  14  8
-0.009466474613288912    14  9  3  2
-0.005737071014227887    14  9  6  1
0.01170318576832361    14  9  6  5
-0.001044981145427103    14  9  8  3
0.001249363275542259    14  9  9  6
-0.0003347324889836124    14  9  11  2
0.005871104247805595    14  9  11  8
0.0001239595763299464    14  9  12  6
0.001677951231524734    14  9  14  1
-0.001836022601295707    14  9  14  5
0.008666523840333659    14  9  14  9
0.007542597362337784    14  10  6  4
0.007542597362337766    14  10  7  3
1.317092941730913e-05    14  10  10  6
1.317092941733754e-05    14  10  11  7
-0.003872098402046921    14  10  13  3
0.007843872852012601    14  10  13  11
-0.003872098402046901    14  10  14  4
0.007843872852012608    14  10  14  10
0.05888263976847502    14  11  2  1
-0.07937543458737367    14  11  5  2
0.083971131045744    14  11  6  3
0.06888593632106824    14  11  7  4
0.02521477775756573    14  11  8  1
0.007911680062145661    14  11  8  5
5.313024326047966e-15    14  11  8  8
0.01017993322431294    14  11  9  2
0.04707381397077449    14  11  9  8
-0.01093327252333094    14  11  10  7
-0.0109069306644964    14  11  11  6
0.03712826952636397    14  11  12  2
0.03624649492672017    14  11  12  8
-0.04573605214466098    14  11  13  4
0.06556911447798429    14  11  13  10
-0.05348024894875459    14  11  14  3
0.08125686018200975    14  11  14  11
-0.02521961346236188    14  12  3  2
-0.02012319620853195    14  12  6  1
0.02103232712689285    14  12  6  5
-0.00881623212382754    14  12  8  3
-0.002402014723767915    14  12  9  6
0.002737092577547105    14  12  11  2
0.009909043632622742    14  12  11  8
-0.0007998659527328215    14  12  12  6
0.01211911102064154    14  12  14  1
-0.003246384094615242    14  12  14  5
0.009695456957132233    14  12  14  9
0.0237943831528405    14  12  14  12