 &FCI NORB=26,NELEC=8,MS2=0,
  ORBSYM=1,5,1,2,3,6,7,5,5,2,3,1,1,6,7,5,3,2,1,4,8,5,1,7,6,5,
  ISYM=1,
 &END
0.5107641009625579    1  1  1  1
0.1059164773379649    2  1  2  1
0.4102290730484571    2  2  1  1
0.4213689982347977    2  2  2  2
0.0816314147851586    3  1  1  1
-0.004138057292221791    3  1  2  2
0.06695540702644583    3  1  3  1
-0.09310501162151688    3  2  2  1
0.1243398986429431    3  2  3  2
0.4290154416349911    3  3  1  1
0.4172457993652393    3  3  2  2
0.01705544576245651    3  3  3  1
0.4351245482991299    3  3  3  3
0.06596469982933921    4  1  4  1
0.04174708029064108    4  2  4  2
-0.002388662737406885    4  3  4  1
0.01661659845533212    4  3  4  3
0.4284831014847355    4  4  1  1
0.3809285449718254    4  4  2  2
0.03743855428785987    4  4  3  1
0.3784161071114154    4  4  3  3
0.4029337860999417    4  4  4  4
0.06142655733778918    5  1  5  1
0.03890431364637844    5  2  5  2
-0.003210481767877826    5  3  5  1
0.01581537803876146    5  3  5  3
0.01479038562902365    5  4  5  4
0.4106772868384873    5  5  1  1
0.366955432568746    5  5  2  2
0.03406961623019217    5  5  3  1
0.3642543967947552    5  5  3  3
0.3597214550953451    5  5  4  4
0.3776705384684011    5  5  5  5
0.03907588979016235    6  1  4  2
0.03815116121809861    6  1  6  1
0.05625734254591424    6  2  4  1
-0.01684466193744494    6  2  4  3
0.06157306596122768    6  2  6  2
-0.02213622209999944    6  3  4  2
-0.0169091425291403    6  3  6  1
0.02153034349443197    6  3  6  3
0.1112769907272962    6  4  2  1
-0.09459027419704731    6  4  3  2
0.1339934322089672    6  4  6  4
0.01145223301094458    6  5  6  5
0.4048906806911565    6  6  1  1
0.3868201859009553    6  6  2  2
0.015568156897667    6  6  3  1
0.3786762501492538    6  6  3  3
0.3893505758227744    6  6  4  4
0.3487625623774089    6  6  5  5
0.3886222285717597    6  6  6  6
0.0365859312166913    7  1  5  2
0.03600913918681495    7  1  7  1
0.05330965802708498    7  2  5  1
-0.01681083893616648    7  2  5  3
0.05920769881795731    7  2  7  2
-0.02152196528965086    7  3  5  2
-0.01652794816034334    7  3  7  1
0.02088621942250315    7  3  7  3
0.0115648071963193    7  4  6  5
0.01168494419669979    7  4  7  4
0.1042806346139047    7  5  2  1
-0.09029532608195419    7  5  3  2
0.103348756367258    7  5  6  4
0.1200747756421658    7  5  7  5
0.01366326914251989    7  6  5  4
0.01460798948705193    7  6  7  6
0.3931535246509977    7  7  1  1
0.3766608447439522    7  7  2  2
0.01410210242008079    7  7  3  1
0.3687242956710371    7  7  3  3
0.3522824270069765    7  7  4  4
0.367672436215057    7  7  5  5
0.3499314565626344    7  7  6  6
0.3705827265509683    7  7  7  7
0.05339733803409769    8  1  2  1
-0.008495776805619172    8  1  3  2
0.05700984406890414    8  1  6  4
0.05156030408829847    8  1  7  5
0.06422026327739305    8  1  8  1
0.07266268466857663    8  2  1  1
0.01448580780043479    8  2  2  2
0.04290099111193343    8  2  3  1
0.01294968975221541    8  2  3  3
0.04913294381602828    8  2  4  4
0.04483139760341531    8  2  5  5
0.03467361071331365    8  2  6  6
0.03212597105018428    8  2  7  7
0.04449442147006736    8  2  8  2
0.08267589984633011    8  3  2  1
-0.08282196654109784    8  3  3  2
0.08158848729728838    8  3  6  4
0.07696243145985061    8  3  7  5
0.03747977677373436    8  3  8  1
0.08524860840448395    8  3  8  3
0.01710884072236062    8  4  4  2
0.02018114301210497    8  4  6  1
0.001760731639726459    8  4  6  3
0.01907194932685793    8  4  8  4
0.01456944891393308    8  5  5  2
0.01777614522577133    8  5  7  1
0.001975734298614768    8  5  7  3
0.01682060122898781    8  5  8  5
0.02828992971405593    8  6  4  1
0.006819145580302186    8  6  4  3
0.0177018104555843    8  6  6  2
0.02021515717053299    8  6  8  6
0.02571275838304872    8  7  5  1
0.00646675656549371    8  7  5  3
0.01610722343246216    8  7  7  2
0.01903688760126461    8  7  8  7
0.4285207109884612    8  8  1  1
0.3778535841941769    8  8  2  2
0.04450882004049453    8  8  3  1
0.3940641380582253    8  8  3  3
0.3704535305293771    8  8  4  4
0.3563396952441931    8  8  5  5
0.3612785620303847    8  8  6  6
0.3519812317805421    8  8  7  7
0.03757605427484331    8  8  8  2
0.3921507412530411    8  8  8  8
-0.008188715033901684    9  1  2  1
-0.01412622022329596    9  1  3  2
-0.009536636364552596    9  1  6  4
-0.008713668954803518    9  1  7  5
-0.02521977034222284    9  1  8  1
-0.01044448108065357    9  1  8  3
0.01757331837781364    9  1  9  1
0.02570114996747397    9  2  1  1
0.05802887709187455    9  2  2  2
-0.02268560979581303    9  2  3  1
0.05464845305729853    9  2  3  3
0.02969302693844006    9  2  4  4
0.02661284274771197    9  2  5  5
0.03685852790841804    9  2  6  6
0.03404688831936274    9  2  7  7
-0.01193287001979346    9  2  8  2
0.02363735196022187    9  2  8  8
0.03672871729686868    9  2  9  2
-0.06703903081455335    9  3  2  1
0.06220350347682774    9  3  3  2
-0.06352130677364067    9  3  6  4
-0.05700159823926202    9  3  7  5
-0.03719109674767695    9  3  8  1
-0.05475843614022333    9  3  8  3
-0.0007622627996785694    9  3  9  1
0.07586919637316725    9  3  9  3
-0.0003084390868514831    9  4  4  2
-0.00254007995984193    9  4  6  1
-0.004399302636951181    9  4  6  3
-0.004817926316181475    9  4  8  4
0.006315952380694385    9  4  9  4
-0.001107689712676143    9  5  5  2
-0.002840873433367419    9  5  7  1
-0.003007367609732755    9  5  7  3
-0.003801259661805469    9  5  8  5
0.005804335329261806    9  5  9  5
-0.005889474085452176    9  6  4  1
-0.005227094065557356    9  6  4  3
-0.0006744014292806584    9  6  6  2
-0.004166613645821278    9  6  8  6
0.00894218985285665    9  6  9  6
-0.006330850401521748    9  7  5  1
-0.003840640306085313    9  7  5  3
-0.002012902939101658    9  7  7  2
-0.003474696246169425    9  7  8  7
0.008750923551415508    9  7  9  7
-0.1202815930433783    9  8  1  1
-0.08230246736888039    9  8  2  2
-0.03256094077859246    9  8  3  1
-0.09121082003082434    9  8  3  3
-0.08608825293152433    9  8  4  4
-0.07800054518273042    9  8  5  5
-0.07740134494601966    9  8  6  6
-0.07182759015325078    9  8  7  7
-0.0320080482501521    9  8  8  2
-0.08548233579724186    9  8  8  8
-0.02266207479929751    9  8  9  2
0.06823617857577501    9  8  9  8
0.3556639749478624    9  9  1  1
0.3652655190011928    9  9  2  2
-8.245877586561437e-05    9  9  3  1
0.3772802695721195    9  9  3  3
0.3243560254123574    9  9  4  4
0.3129623364553064    9  9  5  5
0.3307420769031931    9  9  6  6
0.3227497723644054    9  9  7  7
0.0003546237422909945    9  9  8  2
0.3484082086018078    9  9  8  8
0.04547514680251091    9  9  9  2
-0.06232872149014872    9  9  9  8
0.3544628468096812    9  9  9  9
0.01908767959187728    10  1  4  1
-0.001834425801112863    10  1  4  3
0.01875035229482673    10  1  6  2
0.01148215646349589    10  1  8  6
0.001325349885282577    10  1  9  6
0.0181496291426537    10  1  10  1
0.01996112226617787    10  2  4  2
0.01916947146473233    10  2  6  1
-0.008623705857415082    10  2  6  3
0.01044932736197564    10  2  8  4
0.003303289835993157    10  2  9  4
0.01843667227510729    10  2  10  2
-0.002115440779252698    10  3  4  1
0.006391422362577048    10  3  4  3
-0.006786804172552208    10  3  6  2
0.001369686992295858    10  3  8  6
-0.007477962950799531    10  3  9  6
-0.002484624074614584    10  3  10  1
0.007704869618305104    10  3  10  3
0.0905459680235467    10  4  1  1
0.08186551944303429    10  4  2  2
0.009383314652511798    10  4  3  1
0.0805153670684701    10  4  3  3
0.0711700815193442    10  4  4  4
0.05949020818673336    10  4  5  5
0.07513267744184482    10  4  6  6
0.06369552465523291    10  4  7  7
0.01795507167041638    10  4  8  2
0.07552460535245807    10  4  8  8
0.02139094993385373    10  4  9  2
-0.04253960519109561    10  4  9  8
0.06731317055194407    10  4  9  9
0.05932266541597234    10  4  10  4
0.00026917842010352    10  5  5  4
0.001677629292315832    10  5  7  6
0.006769856294497143    10  5  10  5
0.05666250956993253    10  6  2  1
-0.04056462691298988    10  6  3  2
0.06109757948033504    10  6  6  4
0.04697654552805676    10  6  7  5
0.03847538882277557    10  6  8  1
0.03871623672985358    10  6  8  3
-0.004497884211258214    10  6  9  1
-0.05034936531738526    10  6  9  3
0.05740586184856702    10  6  10  6
0.003030056422484849    10  7  6  5
0.003228360597846675    10  7  7  4
0.005977950783981595    10  7  10  7
0.01316342865986478    10  8  4  2
0.01485019605961111    10  8  6  1
-0.001666039387344694    10  8  6  3
0.01082867309225759    10  8  8  4
-0.005070532266824069    10  8  9  4
0.008233923932982938    10  8  10  2
0.01162625926779574    10  8  10  8
0.00978779712471725    10  9  4  2
0.006037769536642651    10  9  6  1
-0.01273511809783425    10  9  6  3
-0.004528908793721273    10  9  8  4
0.003691008205503353    10  9  9  4
0.003115765912368199    10  9  10  2
-0.001443612324992795    10  9  10  8
0.01059774430306733    10  9  10  9
0.3898325401909994    10  10  1  1
0.3591485045241536    10  10  2  2
0.02527854871342378    10  10  3  1
0.3551239701053786    10  10  3  3
0.3710578211929478    10  10  4  4
0.3348292010728462    10  10  5  5
0.363627454955957    10  10  6  6
0.3317630001718531    10  10  7  7
0.03966895366787938    10  10  8  2
0.3457363671777307    10  10  8  8
0.03255459237260835    10  10  9  2
-0.07884841178389321    10  10  9  8
0.3155390199908397    10  10  9  9
0.06831175259314534    10  10  10  4
0.3604983977899247    10  10  10  10
0.02237918342282092    11  1  5  1
-0.002383252900453596    11  1  5  3
0.02236815701397381    11  1  7  2
0.012873387657707    11  1  8  7
0.0008931266151296581    11  1  9  7
0.02153994413639433    11  1  11  1
0.02214450631930783    11  2  5  2
0.02163159288101033    11  2  7  1
-0.01037704783121958    11  2  7  3
0.01076781811897565    11  2  8  5
0.003189838637623469    11  2  9  5
0.02231970816264128    11  2  11  2
-0.002888867306719118    11  3  5  1
0.007297303361943884    11  3  5  3
-0.008443069693017488    11  3  7  2
0.001595382344451632    11  3  8  7
-0.007540978222478158    11  3  9  7
-0.003191664651163416    11  3  11  1
0.009014868161271396    11  3  11  3
0.002542099313432105    11  4  5  4
0.003864208084817033    11  4  7  6
0.0068712267283672    11  4  10  5
0.007351235512232475    11  4  11  4
0.09159683477244918    11  5  1  1
0.08290209906745934    11  5  2  2
0.009300914911355306    11  5  3  1
0.08144010393316529    11  5  3  3
0.06826772842242605    11  5  4  4
0.06229208163831882    11  5  5  5
0.06979804116888458    11  5  6  6
0.06948420979257731    11  5  7  7
0.01786224532304258    11  5  8  2
0.07607385714252282    11  5  8  8
0.02131569126104593    11  5  9  2
-0.04222963560687901    11  5  9  8
0.06735384493604793    11  5  9  9
0.0449244318924877    11  5  10  4
0.065438164554978    11  5  10  10
0.05829799399472275    11  5  11  5
0.004591719065243153    11  6  6  5
0.004806717789692978    11  6  7  4
0.006444441367400342    11  6  10  7
0.007134000566983092    11  6  11  6
0.06038865393574851    11  7  2  1
-0.04414326724692502    11  7  3  2
0.05648363711388216    11  7  6  4
0.05788040360464499    11  7  7  5
0.03988267924207356    11  7  8  1
0.04134642205323985    11  7  8  3
-0.004591625411299138    11  7  9  1
-0.05201788225493081    11  7  9  3
0.04590952735622766    11  7  10  6
0.06047825342967669    11  7  11  7
0.01345565264630868    11  8  5  2
0.01555653969132117    11  8  7  1
-0.001580029382842692    11  8  7  3
0.01098517087840368    11  8  8  5
-0.005165391302449892    11  8  9  5
0.01016420275092977    11  8  11  2
0.01323934930810953    11  8  11  8
0.009812980232167545    11  9  5  2
0.005966253486643233    11  9  7  1
-0.01287055255699198    11  9  7  3
-0.004713108802158949    11  9  8  5
0.003351434146112438    11  9  9  5
0.0045748425697971    11  9  11  2
-0.002274819434419079    11  9  11  8
0.01126991192314929    11  9  11  9
0.0120496902094629    11  10  5  4
0.01170456374204535    11  10  7  6
0.0008856130063955552    11  10  10  5
0.003055839143837648    11  10  11  4
0.01339058525470662    11  10  11  10
0.4054461381185282    11  11  1  1
0.3737977337259145    11  11  2  2
0.02647957192379054    11  11  3  1
0.3693990766990436    11  11  3  3
0.3585768521814578    11  11  4  4
0.3693917579047601    11  11  5  5
0.3524734457601187    11  11  6  6
0.3666530463101383    11  11  7  7
0.04253887411737416    11  11  8  2
0.3587662989823018    11  11  8  8
0.03660899785583423    11  11  9  2
-0.08618311227598144    11  11  9  8
0.3274416659206159    11  11  9  9
0.07335845904829438    11  11  10  4
0.3456188189695715    11  11  10  10
0.07828198979952981    11  11  11  5
0.386246041779205    11  11  11  11
0.001491268942428279    12  1  1  1
0.02235353942036418    12  1  2  2
-0.01724339314889271    12  1  3  1
0.0113492862744447    12  1  3  3
0.01306037360900978    12  1  4  4
0.01208695094467017    12  1  5  5
0.01621251352246999    12  1  6  6
0.01505113973604142    12  1  7  7
-0.003540187698057381    12  1  8  2
0.0002233299273507626    12  1  8  8
0.01612195088360397    12  1  9  2
-0.003789688927135423    12  1  9  8
0.01066545874911653    12  1  9  9
0.007415722293495988    12  1  10  4
0.0140005033288025    12  1  10  10
0.007494730835255378    12  1  11  5
0.01550742839265462    12  1  11  11
0.01246416911677579    12  1  12  1
0.03479404514183115    12  2  2  1
-0.03476009056202219    12  2  3  2
0.03400436968653941    12  2  6  4
0.02983448845505576    12  2  7  5
0.01501354079837072    12  2  8  1
0.01834384829681735    12  2  8  3
0.00866032336897446    12  2  9  1
-0.04412637134157548    12  2  9  3
0.03196060858695974    12  2  10  6
0.03285574619730727    12  2  11  7
0.03399669711304805    12  2  12  2
-0.09329791867063701    12  3  1  1
-0.07906508300341272    12  3  2  2
-0.0144609280094639    12  3  3  1
-0.08411532104297868    12  3  3  3
-0.06980070579395523    12  3  4  4
-0.06237514210891416    12  3  5  5
-0.06722340305669119    12  3  6  6
-0.06182779450263091    12  3  7  7
-0.01867295422404741    12  3  8  2
-0.06617225809659318    12  3  8  8
-0.03266266611378286    12  3  9  2
0.05641087356132497    12  3  9  8
-0.06366321334618923    12  3  9  9
-0.04165761233527975    12  3  10  4
-0.06758059221904024    12  3  10  10
-0.04125076736769162    12  3  11  5
-0.07493285996515185    12  3  11  11
-0.01005678696660623    12  3  12  1
0.05653006542165149    12  3  12  3
0.009885067973802411    12  4  4  1
-0.003269081982481829    12  4  4  3
0.01061157117276627    12  4  6  2
0.005021905617651672    12  4  8  6
0.005672913223855305    12  4  9  6
0.005787947179825104    12  4  10  1
-0.006643899192062677    12  4  10  3
0.007730877239424819    12  4  12  4
0.008199509433383351    12  5  5  1
-0.00179239235427178    12  5  5  3
0.008198994833582451    12  5  7  2
0.005119884031395606    12  5  8  7
0.005561097424842219    12  5  9  7
0.006093767933856666    12  5  11  1
-0.006558748441202276    12  5  11  3
0.007390495978424185    12  5  12  5
0.007768555521320557    12  6  4  2
0.006802137283787924    12  6  6  1
-0.003588503689141817    12  6  6  3
0.004265993299487353    12  6  8  4
0.005763970731958013    12  6  9  4
0.01075157536037425    12  6  10  2
-0.0003416920677393157    12  6  10  8
0.001590761971777286    12  6  10  9
0.01044995775788917    12  6  12  6
0.005665856397525404    12  7  5  2
0.005349417190832225    12  7  7  1
-0.002082932638689462    12  7  7  3
0.004227765376806962    12  7  8  5
0.005718311041032569    12  7  9  5
0.01084007773112545    12  7  11  2
-0.0002682047190610858    12  7  11  8
0.001437145796141861    12  7  11  9
0.01036984421498664    12  7  12  7
0.007990241308860063    12  8  2  1
-0.02217490722067127    12  8  3  2
0.01209540267998141    12  8  6  4
0.014143938493835    12  8  7  5
-0.01438826226754155    12  8  8  1
0.0133846692990817    12  8  8  3
0.001271332246966645    12  8  9  1
0.02438022527779163    12  8  9  3
-0.01232559630081053    12  8  10  6
-0.01147434370265573    12  8  11  7
-0.01757804124204818    12  8  12  2
0.03726755355520088    12  8  12  8
0.1009219765945939    12  9  2  1
-0.1167956001677547    12  9  3  2
0.1034963447660985    12  9  6  4
0.09847497705842261    12  9  7  5
0.02910678569324123    12  9  8  1
0.1008391803707222    12  9  8  3
-0.002387957023953245    12  9  9  1
-0.06163480824735234    12  9  9  3
0.04491618014434359    12  9  10  6
0.04815381075915136    12  9  11  7
0.02591097660443542    12  9  12  2
0.02904628567699211    12  9  12  8
0.1433736766638747    12  9  12  9
0.01387433010946974    12  10  4  1
-0.01185337497758799    12  10  4  3
0.02196938486416322    12  10  6  2
-0.000420636602686341    12  10  8  6
0.001642666857231225    12  10  9  6
0.005830886489998624    12  10  10  1
-0.004430139023846705    12  10  10  3
0.003266264884286318    12  10  12  4
0.01388501422408154    12  10  12  10
0.01422810642664665    12  11  5  1
-0.01191803020441044    12  11  5  3
0.02238187200356983    12  11  7  2
-0.000239086994045734    12  11  8  7
0.001425450113746235    12  11  9  7
0.007732496625378181    12  11  11  1
-0.00630447053903728    12  11  11  3
0.00278806733868679    12  11  12  5
0.01443937679562997    12  11  12  11
0.3268976073877389    12  12  1  1
0.3424941637533378    12  12  2  2
-0.006701124434875595    12  12  3  1
0.3494666609307485    12  12  3  3
0.3061773845416479    12  12  4  4
0.2974541982099012    12  12  5  5
0.3136155033283758    12  12  6  6
0.3074568514155421    12  12  7  7
-0.004711223981319073    12  12  8  2
0.3237816780751857    12  12  8  8
0.03520020270249266    12  12  9  2
-0.04172012004491979    12  12  9  8
0.3297381717297514    12  12  9  9
0.05250081917470624    12  12  10  4
0.2971932829551275    12  12  10  10
0.0528127822078531    12  12  11  5
0.3065370921224513    12  12  11  11
0.009210076517297603    12  12  12  1
-0.04429450444727707    12  12  12  3
0.3148481681218331    12  12  12  12
0.07594881933987992    13  1  1  1
0.05381742735727193    13  1  2  2
0.02196234350674381    13  1  3  1
0.06667125757166396    13  1  3  3
0.04329795659890724    13  1  4  4
0.03624840855371911    13  1  5  5
0.04462698319180033    13  1  6  6
0.04025841227040403    13  1  7  7
0.01442776379556957    13  1  8  2
0.06554789141783772    13  1  8  8
0.01046683436026615    13  1  9  2
-0.03855730225980046    13  1  9  8
0.05448708936109116    13  1  9  9
0.03995803440866885    13  1  10  4
0.04362794239111351    13  1  10  10
0.03920610769416496    13  1  11  5
0.05037981317886404    13  1  11  11
-0.004865067814102985    13  1  12  1
-0.03395161325423007    13  1  12  3
0.03966841852856513    13  1  12  12
0.04554335579909077    13  1  13  1
0.0348760338475599    13  2  2  1
-0.03378043354124954    13  2  3  2
0.03096314796565869    13  2  6  4
0.02723251959676232    13  2  7  5
0.01772157684430681    13  2  8  1
0.03237871864493725    13  2  8  3
-0.0009361807610673613    13  2  9  1
-0.03486883991198522    13  2  9  3
0.02878699738796099    13  2  10  6
0.02945103556194961    13  2  11  7
0.01872952273708945    13  2  12  2
-0.005848643813163828    13  2  12  8
0.03710170045877274    13  2  12  9
0.02198605542759129    13  2  13  2
0.03172063170566213    13  3  1  1
-0.008304659643312326    13  3  2  2
0.03181305322718364    13  3  3  1
0.0006518241487554815    13  3  3  3
0.01072135334833669    13  3  4  4
0.009190429767231379    13  3  5  5
0.004550819010709596    13  3  6  6
0.004130266325265248    13  3  7  7
0.02172229735884772    13  3  8  2
0.01836319783569743    13  3  8  8
-0.01670794688647937    13  3  9  2
-0.01305996057689077    13  3  9  8
-0.003470427812692372    13  3  9  9
0.005322057172451555    13  3  10  4
0.007573870623892931    13  3  10  10
0.005080867092561649    13  3  11  5
0.008199641184438364    13  3  11  11
-0.01256318412711753    13  3  12  1
-0.003382454656330612    13  3  12  3
-0.005582360557909215    13  3  12  12
0.01542276537367316    13  3  13  1
0.02223100769924849    13  3  13  3
-0.01683242469766065    13  4  4  1
-0.0003027266339941637    13  4  4  3
-0.01163383866823809    13  4  6  2
-0.004526407300247345    13  4  8  6
0.004538574526544878    13  4  9  6
0.01113224751963478    13  4  10  1
-0.0007089995730711799    13  4  10  3
-0.0003718728543145017    13  4  12  4
-0.001092246136365387    13  4  12  10
0.0258336790097855    13  4  13  4
-0.02118222119581204    13  5  5  1
0.0001444646436982136    13  5  5  3
-0.0152327626309319    13  5  7  2
-0.006070080611466712    13  5  8  7
0.005347038969974575    13  5  9  7
0.008781893514553532    13  5  11  1
-0.0005151144887589102    13  5  11  3
-0.0005506268493562969    13  5  12  5
-0.001853555834618034    13  5  12  11
0.02914464286975876    13  5  13  5
0.000427271767552523    13  6  4  2
0.001125648646859148    13  6  6  1
0.001258922617789527    13  6  6  3
0.001640357241802772    13  6  8  4
0.001705466610339733    13  6  9  4
0.008756185491130501    13  6  10  2
0.004499729268623764    13  6  10  8
-0.001811844783353203    13  6  10  9
0.004454826504106997    13  6  12  6
0.01043494615804512    13  6  13  6
-0.001553744887697783    13  7  5  2
-0.0005771874444482274    13  7  7  1
0.002014594768525856    13  7  7  3
0.000642014206044511    13  7  8  5
0.002078013006881222    13  7  9  5
0.008106325459896866    13  7  11  2
0.00406310543204795    13  7  11  8
-0.001824300128590007    13  7  11  9
0.004446390328313708    13  7  12  7
0.0105703485934048    13  7  13  7
0.01723312869856731    13  8  2  1
0.006644220130488068    13  8  3  2
0.01620573988192868    13  8  6  4
0.01329281007307319    13  8  7  5
0.03193823438196691    13  8  8  1
0.01581610841118093    13  8  8  3
-0.01644274531665013    13  8  9  1
-0.01686155716439824    13  8  9  3
0.02015185934094115    13  8  10  6
0.02010499381811458    13  8  11  7
0.003580861423578988    13  8  12  2
-0.01223752817886676    13  8  12  8
0.009717753034656286    13  8  12  9
0.01156949157114106    13  8  13  2
0.02519569738433866    13  8  13  8
0.006252917574250373    13  9  2  1
-0.0265367505558495    13  9  3  2
0.0067847522720706    13  9  6  4
0.007462787551850748    13  9  7  5
-0.01804735718823751    13  9  8  1
0.003611478586461151    13  9  8  3
0.01388979590504775    13  9  9  1
-0.003504524294468857    13  9  9  3
-0.002583447163054864    13  9  10  6
-0.00203872042490045    13  9  11  7
0.007040284086084521    13  9  12  2
0.008854734973038594    13  9  12  8
0.01491506849451045    13  9  12  9
0.0007004170318696686    13  9  13  2
-0.01529980112456356    13  9  13  8
0.01510891233640877    13  9  13  9
0.04531973609899721    13  10  4  1
-0.002659121772223298    13  10  4  3
0.03894609166838063    13  10  6  2
0.01830391344240202    13  10  8  6
-0.00530280429705716    13  10  9  6
0.007185825191823461    13  10  10  1
-0.001274566379037525    13  10  10  3
0.006129819006434902    13  10  12  4
0.00968415548765944    13  10  12  10
-0.02031384242361061    13  10  13  4
0.04159355633103228    13  10  13  10
0.04269501810460338    13  11  5  1
-0.003118116062389231    13  11  5  3
0.03732734671884755    13  11  7  2
0.01710039197921688    13  11  8  7
-0.005301162129860547    13  11  9  7
0.01160318685923572    13  11  11  1
-0.002055252609667692    13  11  11  3
0.005300780260707457    13  11  12  5
0.01008739476316988    13  11  12  11
-0.02136746908306689    13  11  13  5
0.03817892820160543    13  11  13  11
-0.02672455057590033    13  12  1  1
0.006162989789112831    13  12  2  2
-0.02543054110125826    13  12  3  1
-0.001934293235166425    13  12  3  3
-0.01155168926123471    13  12  4  4
-0.01097327250814497    13  12  5  5
-0.002342955062301042    13  12  6  6
-0.002131045156956651    13  12  7  7
-0.01570275341109151    13  12  8  2
-0.01550526851074309    13  12  8  8
0.01187688492895135    13  12  9  2
0.009810201963326066    13  12  9  8
0.003954987407757897    13  12  9  9
0.0005568477571324163    13  12  10  4
-0.006920698375968619    13  12  10  10
0.0005310137142107161    13  12  11  5
-0.006667392205637312    13  12  11  11
0.007787101249307243    13  12  12  1
0.001233628737894342    13  12  12  3
0.005412152732521023    13  12  12  12
-0.005221546261330768    13  12  13  1
-0.01225740643994393    13  12  13  3
0.0122688386222927    13  12  13  12
0.4166251614838734    13  13  1  1
0.3493669845739829    13  13  2  2
0.05327922195562065    13  13  3  1
0.3586792319839677    13  13  3  3
0.3692329904487309    13  13  4  4
0.3590079526935885    13  13  5  5
0.3487707153441273    13  13  6  6
0.3414312655883461    13  13  7  7
0.05108899371868258    13  13  8  2
0.3576864789668174    13  13  8  8
0.01956807513114178    13  13  9  2
-0.08553961503666835    13  13  9  8
0.3059501613382916    13  13  9  9
0.05021570457164222    13  13  10  4
0.3445124882978846    13  13  10  10
0.0509904142889654    13  13  11  5
0.3532665207409978    13  13  11  11
0.004503554423786419    13  13  12  1
-0.06384705140205718    13  13  12  3
0.287800456359014    13  13  12  12
0.03788228294376967    13  13  13  1
0.01733058576736912    13  13  13  3
-0.02135748845391363    13  13  13  12
0.3734577479262964    13  13  13  13
-0.01763200816447573    14  1  4  2
-0.01880184855124039    14  1  6  1
0.003418612749421733    14  1  6  3
-0.01371971635685541    14  1  8  4
0.0004703198912344363    14  1  9  4
-0.01616777457251808    14  1  10  2
-0.01083631060007815    14  1  10  8
0.0007652842291387952    14  1  10  9
-0.007693376078633408    14  1  12  6
-0.008504443343831899    14  1  13  6
0.0166178633274555    14  1  14  1
-0.01831225156478992    14  2  4  1
0.00263935178989038    14  2  4  3
-0.01802047005161712    14  2  6  2
-0.01088801295916622    14  2  8  6
-0.005309602564767604    14  2  9  6
-0.01637848074033324    14  2  10  1
0.006553148268769197    14  2  10  3
-0.00947992542819061    14  2  12  4
-0.005513750972890035    14  2  12  10
-0.008308651774324289    14  2  13  4
-0.008291082561516047    14  2  13  10
0.01811578084767668    14  2  14  2
0.001152331161186514    14  3  4  2
-0.0007106006042768058    14  3  6  1
-0.003548884963116511    14  3  6  3
-0.002356171833027916    14  3  8  4
0.006844548722453233    14  3  9  4
0.006065657793859774    14  3  10  2
-0.004139390436977398    14  3  10  8
0.003091398262796286    14  3  10  9
0.008110448413748177    14  3  12  6
0.003110463678134605    14  3  13  6
-0.002203388028476019    14  3  14  1
0.008224710274709727    14  3  14  3
-0.04860403313359567    14  4  2  1
0.03027827333860072    14  4  3  2
-0.0519127888413359    14  4  6  4
-0.03953941795631703    14  4  7  5
-0.03750550135461012    14  4  8  1
-0.03278390927881047    14  4  8  3
0.005850137824647286    14  4  9  1
0.04479541505426983    14  4  9  3
-0.0523370630858374    14  4  10  6
-0.04141367256610787    14  4  11  7
-0.02827544423863822    14  4  12  2
0.01348262744640256    14  4  12  8
-0.03562834225757242    14  4  12  9
-0.02568997695281782    14  4  13  2
-0.01995206687606102    14  4  13  8
0.00455568591478971    14  4  13  9
0.04851344827379384    14  4  14  4
-0.002147037388316953    14  5  6  5
-0.002336999434604102    14  5  7  4
-0.005515138056835175    14  5  10  7
-0.005840804118314726    14  5  11  6
0.005242307807919257    14  5  14  5
-0.1037794562340202    14  6  1  1
-0.08584734159086431    14  6  2  2
-0.01585827619703972    14  6  3  1
-0.08450067450220083    14  6  3  3
-0.08329563572343557    14  6  4  4
-0.06896691618695464    14  6  5  5
-0.08113340810916812    14  6  6  6
-0.06930179597723886    14  6  7  7
-0.02456248100357732    14  6  8  2
-0.0811544206386782    14  6  8  8
-0.02280856711908488    14  6  9  2
0.04936133160016568    14  6  9  8
-0.06767861146418259    14  6  9  9
-0.0592342020950689    14  6  10  4
-0.07940587364410025    14  6  10  10
-0.0459769893251575    14  6  11  5
-0.08231079207210207    14  6  11  11
-0.009410329313227567    14  6  12  1
0.04688635141091956    14  6  12  3
-0.05160029805688927    14  6  12  12
-0.03812985492207686    14  6  13  1
-0.005041325941180527    14  6  13  3
0.003040819092279847    14  6  13  12
-0.06518223936941721    14  6  13  13
0.06441248134754389    14  6  14  6
-0.001831075715781595    14  7  5  4
-0.00196551601710338    14  7  7  6
-0.006088475637347499    14  7  10  5
-0.006430972027555921    14  7  11  4
-0.002460097143198315    14  7  11  10
0.006746075445637847    14  7  14  7
-0.0237578420033479    14  8  4  1
-0.0004482340880178746    14  8  4  3
-0.02024275579765385    14  8  6  2
-0.01141208354834067    14  8  8  6
0.006761275915192585    14  8  9  6
-0.01149070351473653    14  8  10  1
-0.00347794295401571    14  8  10  3
-0.0001036469025943781    14  8  12  4
-0.005799198525498396    14  8  12  10
-0.0005663434363577252    14  8  13  4
-0.01486792463884686    14  8  13  10
0.007402650708562303    14  8  14  2
0.01538357518263266    14  8  14  8
-0.006898323337903072    14  9  4  1
0.01206341694736505    14  9  4  3
-0.01574675663715349    14  9  6  2
0.005977182956793985    14  9  8  6
-0.001677546548813457    14  9  9  6
0.000996235732653286    14  9  10  1
0.004188300143762125    14  9  10  3
-0.001334029004786832    14  9  12  4
-0.01275397156991389    14  9  12  10
0.005092709108521318    14  9  13  4
-0.007195698861169114    14  9  13  10
-0.0003600519937136744    14  9  14  2
0.001532104775436681    14  9  14  8
0.01473791557162113    14  9  14  9
-0.101604380058062    14  10  2  1
0.08652565303949909    14  10  3  2
-0.1205519199341278    14  10  6  4
-0.09551607589502137    14  10  7  5
-0.05362042729356738    14  10  8  1
-0.07822395014226614    14  10  8  3
0.01017392668833774    14  10  9  1
0.06237836471155652    14  10  9  3
-0.0602121426092161    14  10  10  6
-0.05600931534221096    14  10  11  7
-0.03234474929892154    14  10  12  2
-0.009096233659576907    14  10  12  8
-0.1035825826193873    14  10  12  9
-0.0328634671810759    14  10  13  2
-0.02071394843265793    14  10  13  8
-0.004223700380976045    14  10  13  9