 &FCI NORB=26,NELEC=8,MS2=0,
  ORBSYM=1,5,3,2,1,7,6,5,1,2,3,1,6,7,5,5,1,4,3,2,8,5,1,7,6,5,
  ISYM=1,
 &END
0.6270921830771407    1  1  1  1
0.06859382155709537    2  1  2  1
0.4365682108318595    2  2  1  1
0.4435662284097126    2  2  2  2
0.08580345028076715    3  1  3  1
0.03637166323868835    3  2  3  2
0.5134590458251483    3  3  1  1
0.4119491333189722    3  3  2  2
0.4774385823569762    3  3  3  3
0.08580345028076708    4  1  4  1
0.03637166323868835    4  2  4  2
0.01933648197240444    4  3  4  3
0.5134590458251481    4  4  1  1
0.4119491333189721    4  4  2  2
0.4387656184121672    4  4  3  3
0.4774385823569758    4  4  4  4
0.1169344508279792    5  1  1  1
0.003871353133013156    5  1  2  2
0.05927806538005942    5  1  3  3
0.05927806538005938    5  1  4  4
0.06776481774693481    5  1  5  1
-0.08567633618662034    5  2  2  1
0.143506487956136    5  2  5  2
-0.000251334308904409    5  3  3  1
0.0171012381751625    5  3  5  3
-0.0002513343089044222    5  4  4  1
0.01710123817516249    5  4  5  4
0.4653779532404312    5  5  1  1
0.4343913938044108    5  5  2  2
0.4123039737612419    5  5  3  3
0.4123039737612418    5  5  4  4
0.03109602855064675    5  5  5  1
0.4472789547361316    5  5  5  5
0.03158203847049923    6  1  3  2
0.02934047605245695    6  1  6  1
0.05712648741766291    6  2  3  1
-0.01947665529242925    6  2  5  3
0.06067019327948955    6  2  6  2
0.08056248091907592    6  3  2  1
-0.09571440418005105    6  3  5  2
0.1095432726510893    6  3  6  3
0.0110293068334687    6  4  6  4
-0.02436500706112546    6  5  3  2
-0.01769546090644735    6  5  6  1
0.02530996329727636    6  5  6  5
0.4267388648031226    6  6  1  1
0.3932059465724905    6  6  2  2
0.4140970753790366    6  6  3  3
0.384974275732115    6  6  4  4
0.0216345442498134    6  6  5  1
0.384827678334699    6  6  5  5
0.3871857575144551    6  6  6  6
0.03158203847049922    7  1  4  2
0.02934047605245694    7  1  7  1
0.05712648741766291    7  2  4  1
-0.01947665529242924    7  2  5  4
0.0606701932794895    7  2  7  2
0.01102930683346871    7  3  6  4
0.01102930683346871    7  3  7  3
0.0805624809190759    7  4  2  1
-0.09571440418005103    7  4  5  2
0.08748465898415182    7  4  6  3
0.1095432726510892    7  4  7  4
-0.02436500706112545    7  5  4  2
-0.01769546090644733    7  5  7  1
0.02530996329727634    7  5  7  5
0.01456139982346068    7  6  4  3
0.01491299144088354    7  6  7  6
0.4267388648031227    7  7  1  1
0.3932059465724906    7  7  2  2
0.3849742757321152    7  7  3  3
0.4140970753790364    7  7  4  4
0.02163454424981341    7  7  5  1
0.3848276783346989    7  7  5  5
0.357359774632688    7  7  6  6
0.3871857575144551    7  7  7  7
0.02902138744093461    8  1  2  1
-0.02316140583074054    8  1  5  2
0.0351510815184262    8  1  6  3
0.03515108151842612    8  1  7  4
0.01808426543160701    8  1  8  1
0.0809936980519675    8  2  1  1
0.05063681220595854    8  2  2  2
0.06756088508161279    8  2  3  3
0.06756088508161279    8  2  4  4
0.01674786740012765    8  2  5  1
0.04520911442594114    8  2  5  5
0.04932482766244161    8  2  6  6
0.04932482766244155    8  2  7  7
0.02921286109844705    8  2  8  2
0.01525463174528489    8  3  3  2
0.01480441122137278    8  3  6  1
-0.005178953979343216    8  3  6  5
0.009661416173117748    8  3  8  3
0.0152546317452849    8  4  4  2
0.01480441122137276    8  4  7  1
-0.005178953979343188    8  4  7  5
0.009661416173117743    8  4  8  4
0.01167030464149496    8  5  2  1
-0.02441697297471192    8  5  5  2
0.01382271225121929    8  5  6  3
0.01382271225121925    8  5  7  4
-0.001967863122376654    8  5  8  1
0.026384641697521    8  5  8  5
0.02258953670439637    8  6  3  1
-0.0001180443613229482    8  6  5  3
0.01412772347690472    8  6  6  2
0.0124074467077316    8  6  8  6
0.02258953670439645    8  7  4  1
-0.000118044361322938    8  7  5  4
0.01412772347690463    8  7  7  2
0.01240744670773158    8  7  8  7
0.2916088510341896    8  8  1  1
0.2975592684871387    8  8  2  2
0.2788706761018225    8  8  3  3
0.2788706761018247    8  8  4  4
0.00105601863771467    8  8  5  1
0.302354751738994    8  8  5  5
-1.568190022283034e-15    8  8  6  3
0.2759176790863196    8  8  6  6
0.2759176790863198    8  8  7  7
-0.0006387749959329255    8  8  8  2
1.100345942833814e-14    8  8  8  5
0.2869632399568438    8  8  8  8
-0.05929856196282133    9  1  1  1
-0.007968163181318356    9  1  2  2
-0.02075950943275414    9  1  3  3
-0.02075950943275415    9  1  4  4
-0.03591792404918156    9  1  5  1
-0.03014725721161714    9  1  5  5
-0.009687478534601453    9  1  6  6
-0.009687478534601418    9  1  7  7
-0.002340153776350694    9  1  8  2
-0.01042409227756845    9  1  8  8
0.03087474856554581    9  1  9  1
0.01564299575837386    9  2  2  1
-0.01506349990628524    9  2  5  2
0.018123285621791    9  2  6  3
0.01812328562179102    9  2  7  4
0.01125212089310559    9  2  8  1
-0.01503070767251356    9  2  8  5
0.01801281789149307    9  2  9  2
0.01911996404560371    9  3  3  1
-0.006530672815401355    9  3  5  3
0.01767317349629785    9  3  6  2
0.007836858927608336    9  3  8  6
0.01429247377884721    9  3  9  3
0.0191199640456037    9  4  4  1
-0.006530672815401354    9  4  5  4
0.01767317349629785    9  4  7  2
0.007836858927608339    9  4  8  7
0.01429247377884721    9  4  9  4
-0.1240954636464834    9  5  1  1
-0.0647214880946063    9  5  2  2
-0.08615171660760451    9  5  3  3
-0.08615171660760447    9  5  4  4
-0.03887666717298704    9  5  5  1
-0.07399029304717041    9  5  5  5
-0.05972599211937393    9  5  6  6
-0.05972599211937388    9  5  7  7
-0.03507923092621922    9  5  8  2
-0.003278526000370435    9  5  8  8
0.02064838335287025    9  5  9  1
0.0561189809833292    9  5  9  5
0.006827288404901324    9  6  3  2
0.005221685079131433    9  6  6  1
-0.002586703116730883    9  6  6  5
0.005471186457027038    9  6  8  3
0.007195533074238594    9  6  9  6
0.006827288404901312    9  7  4  2
0.005221685079131424    9  7  7  1
-0.002586703116730861    9  7  7  5
0.005471186457027035    9  7  8  4
0.007195533074238598    9  7  9  7
0.04286217923935926    9  8  2  1
-0.07821875302088499    9  8  5  2
0.05067011816288223    9  8  6  3
0.05067011816288237    9  8  7  4
0.004505807198699747    9  8  8  1
0.03895907612411906    9  8  8  5
1.967176421757699e-15    9  8  8  8
-0.01039559169471919    9  8  9  2
0.0805298639096011    9  8  9  8
0.394090708245796    9  9  1  1
0.3439683339776181    9  9  2  2
0.3530731980215353    9  9  3  3
0.353073198021535    9  9  4  4
0.03511047412068991    9  9  5  1
0.3569344556387321    9  9  5  5
0.3246567691533415    9  9  6  6
0.3246567691533416    9  9  7  7
0.02728233383752959    9  9  8  2
0.2805728879828726    9  9  8  8
-0.02288476832381751    9  9  9  1
-0.04649471620734767    9  9  9  5
0.3196800629625225    9  9  9  9
0.03187851621982509    10  1  4  1
0.006531648116953252    10  1  5  4
0.0149624880937417    10  1  7  2
0.01066912871453538    10  1  8  7
-0.0007021413607392746    10  1  9  4
0.02334472334298907    10  1  10  1
0.008456060667101346    10  2  4  2
0.008009255428536637    10  2  7  1
-0.000470186381888164    10  2  7  5
0.007003731365078097    10  2  8  4
0.004483853039361232    10  2  9  7
0.0105388530339128    10  2  10  2
0.003220020413033416    10  3  4  3
0.001170465784584118    10  3  7  6
0.006781042314328838    10  3  10  3
0.1263964450416976    10  4  1  1
0.07554586604807927    10  4  2  2
0.08770888673454708    10  4  3  3
0.0941489275606139    10  4  4  4
0.03341741299516195    10  4  5  1
0.08206688786778886    10  4  5  5
0.06519990076615405    10  4  6  6
0.06754083233532217    10  4  7  7
0.02841250320328273    10  4  8  2
0.0281845428546904    10  4  8  8
-0.02189121659983382    10  4  9  1
-0.04338749322327333    10  4  9  5
0.05214843607297969    10  4  9  9
0.0630814011447136    10  4  10  4
0.01809828631915128    10  5  4  1
0.00304250247770031    10  5  5  4
0.009982937096157357    10  5  7  2
-0.0001974511649887937    10  5  8  7
-0.0001277974461345347    10  5  9  4
0.005024567567566089    10  5  10  1
0.01055335368836599    10  5  10  5
0.001430149604738031    10  6  6  4
0.001430149604738026    10  6  7  3
0.005261850632541525    10  6  10  6
0.0199246588079545    10  7  2  1
-0.01062662479108481    10  7  5  2
0.01991823799559977    10  7  6  3
0.02277853720507573    10  7  7  4
0.01637705360902917    10  7  8  1
-0.009106919334089846    10  7  8  5
-3.524958103184872e-15    10  7  8  8
0.01371927463687591    10  7  9  2
-0.009509836572615624    10  7  9  8
0.03473435089332441    10  7  10  7
0.01208523502188052    10  8  4  2
0.01101620121561689    10  8  7  1
-0.008374031358994224    10  8  7  5
0.003782991126275318    10  8  8  4
-0.001589675247307208    10  8  9  7
0.002962079504207132    10  8  10  2
0.007697064227570138    10  8  10  8
-0.015544111409264    10  9  4  1
-0.006238883303273652    10  9  5  4
-0.002369421141817601    10  9  7  2
-0.005820556385623131    10  9  8  7
-0.005517869925979339    10  9  9  4
-0.003241658261257325    10  9  10  1
-0.005122504557503283    10  9  10  5
0.01268338196664945    10  9  10  9
0.4165336501803257    10  10  1  1
0.3491036784592073    10  10  2  2
0.3669376625637268    10  10  3  3
0.3930326308051052    10  10  4  4
0.04024168483046003    10  10  5  1
0.3501337220551362    10  10  5  5
0.3309024874395097    10  10  6  6
0.3532940525753653    10  10  7  7
0.04687365066128855    10  10  8  2
0.2539882679013362    10  10  8  8
-0.01556753200029375    10  10  9  1
-0.06196684810013662    10  10  9  5
0.3112117433927785    10  10  9  9
0.05940137451299001    10  10  10  4
0.349956002459946    10  10  10  10
0.0318785162198251    11  1  3  1
0.006531648116953254    11  1  5  3
0.01496248809374172    11  1  6  2
0.01066912871453538    11  1  8  6
-0.0007021413607392785    11  1  9  3
0.02334472334298908    11  1  11  1
0.008456060667101351    11  2  3  2
0.008009255428536649    11  2  6  1
-0.000470186381888182    11  2  6  5
0.007003731365078098    11  2  8  3
0.004483853039361235    11  2  9  6
0.0105388530339128    11  2  11  2
0.1263964450416977    11  3  1  1
0.07554586604807935    11  3  2  2
0.09414892756061402    11  3  3  3
0.08770888673454716    11  3  4  4
0.03341741299516196    11  3  5  1
0.08206688786778901    11  3  5  5
0.06754083233532236    11  3  6  6
0.06519990076615408    11  3  7  7
0.02841250320328275    11  3  8  2
0.02818454285469044    11  3  8  8
-0.02189121659983383    11  3  9  1
-0.04338749322327335    11  3  9  5
0.05214843607297975    11  3  9  9
0.04951931651605603    11  3  10  4
0.06055432016408204    11  3  10  10
0.06308140114471372    11  3  11  3
0.003220020413033411    11  4  4  3
0.001170465784584116    11  4  7  6
0.00678104231432884    11  4  10  3
0.00678104231432884    11  4  11  4
0.01809828631915129    11  5  3  1
0.003042502477700316    11  5  5  3
0.009982937096157354    11  5  6  2
-0.0001974511649887911    11  5  8  6
-0.0001277974461345353    11  5  9  3
0.005024567567566086    11  5  11  1
0.01055335368836599    11  5  11  5
0.01992465880795456    11  6  2  1
-0.0106266247910849    11  6  5  2
0.02277853720507586    11  6  6  3
0.01991823799559979    11  6  7  4
0.01637705360902919    11  6  8  1
-0.009106919334089835    11  6  8  5
-3.518669730584456e-15    11  6  8  8
0.01371927463687592    11  6  9  2
-0.009509836572615584    11  6  9  8
0.02421064962824147    11  6  10  7
0.03473435089332443    11  6  11  6
0.001430149604738024    11  7  6  4
0.001430149604738021    11  7  7  3
0.00526185063254153    11  7  10  6
0.005261850632541532    11  7  11  7
0.01208523502188046    11  8  3  2
0.01101620121561691    11  8  6  1
-0.008374031358994269    11  8  6  5
0.003782991126275311    11  8  8  3
-0.001589675247307188    11  8  9  6
0.002962079504207087    11  8  11  2
0.007697064227570173    11  8  11  8
-0.01554411140926401    11  9  3  1
-0.006238883303273654    11  9  5  3
-0.002369421141817608    11  9  6  2
-0.005820556385623122    11  9  8  6
-0.005517869925979338    11  9  9  3
-0.003241658261257331    11  9  11  1
-0.005122504557503287    11  9  11  5
0.01268338196664947    11  9  11  9
0.01304748412068929    11  10  4  3
0.01119578256792776    11  10  7  6
-0.0005764728255459363    11  10  10  3
-0.00057647282554594    11  10  11  4
0.01369023979986218    11  10  11  10
0.416533650180326    11  11  1  1
0.3491036784592075    11  11  2  2
0.3930326308051056    11  11  3  3
0.366937662563727    11  11  4  4
0.04024168483046005    11  11  5  1
0.3501337220551364    11  11  5  5
0.3532940525753656    11  11  6  6
0.3309024874395102    11  11  7  7
0.04687365066128858    11  11  8  2
0.2539882679013363    11  11  8  8
-0.01556753200029376    11  11  9  1
-0.06196684810013666    11  11  9  5
0.3112117433927788    11  11  9  9
0.06055432016408199    11  11  10  4
0.322575522860222    11  11  10  10
0.05940137451299014    11  11  11  3
0.3499560024599463    11  11  11  11
0.07223765228745933    12  1  1  1
0.05230106348206729    12  1  2  2
0.04685386430645816    12  1  3  3
0.04685386430645812    12  1  4  4
0.01738657840768839    12  1  5  1
0.05948689140649477    12  1  5  5
0.03858892371666069    12  1  6  6
0.03858892371666063    12  1  7  7
0.01580079110360018    12  1  8  2
0.01829434688979639    12  1  8  8
-0.01857231668206132    12  1  9  1
-0.02955358034398401    12  1  9  5
0.03215296902075115    12  1  9  9
0.03507970214461868    12  1  10  4
0.03253303943081247    12  1  10  10
0.0350797021446187    12  1  11  3
0.03253303943081251    12  1  11  11
0.02827343439592181    12  1  12  1
0.04282183596376982    12  2  2  1
-0.0620904116241933    12  2  5  2
0.04412669656052107    12  2  6  3
0.04412669656052098    12  2  7  4
0.01897275478161015    12  2  8  1
-0.004728188726869663    12  2  8  5
-2.601434692661719e-15    12  2  8  8
0.02081493416767439    12  2  9  2
0.01404410980352109    12  2  9  8
0.02660726681646401    12  2  10  7
0.02660726681646406    12  2  11  6
0.04988140332813441    12  2  12  2
-0.009316826604039506    12  3  3  1
-6.60096913772026e-05    12  3  5  3
-0.004732854162006982    12  3  6  2
0.001658444524908734    12  3  8  6
-0.008893042536362031    12  3  9  3
0.009676191937681239    12  3  11  1
-0.007476755880743458    12  3  11  5
0.008902590551414369    12  3  11  9
0.02093486554590572    12  3  12  3
-0.009316826604039501    12  4  4  1
-6.600969137719856e-05    12  4  5  4
-0.004732854162007007    12  4  7  2
0.001658444524908738    12  4  8  7
-0.008893042536362031    12  4  9  4
0.009676191937681228    12  4  10  1
-0.007476755880743461    12  4  10  5
0.008902590551414362    12  4  10  9
0.02093486554590572    12  4  12  4
-0.02870837076340269    12  5  1  1
-0.06449145702114092    12  5  2  2
-0.03577558291812062    12  5  3  3
-0.03577558291812058    12  5  4  4
0.01717315874468052    12  5  5  1
-0.05544780435706723    12  5  5  5
-0.03734399818393597    12  5  6  6
-0.03734399818393598    12  5  7  7
-0.01570619079174299    12  5  8  2
-0.01310860405460033    12  5  8  8
-0.008483519940530235    12  5  9  1
0.01820795348106781    12  5  9  5
-0.02187049273831514    12  5  9  9
-0.0184502889286676    12  5  10  4
-0.02402690687190701    12  5  10  10
-0.01845028892866761    12  5  11  3
-0.02402690687190702    12  5  11  11
-0.01614230572296985    12  5  12  1
0.03616570982107916    12  5  12  5
0.004101704674164747    12  6  3  2
0.00291876461902461    12  6  6  1
3.630624487793005e-05    12  6  6  5
0.004046775182273862    12  6  8  3
0.003465958025064907    12  6  9  6
0.01070408702716609    12  6  11  2
0.001583197084388584    12  6  11  8
0.01390950533083798    12  6  12  6
0.004101704674164713    12  7  4  2
0.002918764619024576    12  7  7  1
3.630624487796432e-05    12  7  7  5
0.004046775182273854    12  7  8  4
0.003465958025064897    12  7  9  7
0.01070408702716608    12  7  10  2
0.001583197084388524    12  7  10  8
0.01390950533083798    12  7  12  7
0.03099614622374514    12  8  2  1
-0.04850090629856769    12  8  5  2
0.03527853140868255    12  8  6  3
0.03527853140868246    12  8  7  4
0.008453579648664476    12  8  8  1
1.372383109932152e-15    12  8  8  2
0.01681525792090496    12  8  8  5
-1.920512360253923e-14    12  8  8  8
-6.068870752324755e-05    12  8  9  2
0.03836101455632843    12  8  9  8
0.005348666629943731    12  8  10  7
0.005348666629943802    12  8  11  6
0.01959663062164009    12  8  12  2
0.02396610743687131    12  8  12  8
-0.03819426843382086    12  9  1  1
0.01604728180514706    12  9  2  2
-0.02434433174809027    12  9  3  3
-0.02434433174809012    12  9  4  4
-0.02688164355838244    12  9  5  1
0.01145648908916492    12  9  5  5
-0.003619041678004978    12  9  6  6
-0.003619041678005038    12  9  7  7
-0.009296317093198348    12  9  8  2
0.01762115424498656    12  9  8  8
0.003120523781112769    12  9  9  1
0.0108681769148226    12  9  9  5
-0.00448813324041342    12  9  9  9
0.002534663593843484    12  9  10  4
-0.01867545846960865    12  9  10  10
0.002534663593843442    12  9  11  3
-0.01867545846960886    12  9  11  11
0.008582306892313292    12  9  12  1
-0.01588335309637552    12  9  12  5
0.03112877442888386    12  9  12  9
0.04676487663902691    12  10  4  1
-0.01031077660653769    12  10  5  4
0.04204496065896019    12  10  7  2
0.009759690488026834    12  10  8  7
0.01749715654754971    12  10  9  4
0.007180552103293013    12  10  10  1
0.01163383292352089    12  10  10  5
-0.01073876644466185    12  10  10  9
-0.01496183350982611    12  10  12  4
0.04343992053812829    12  10  12  10
0.04676487663902689    12  11  3  1
-0.01031077660653768    12  11  5  3
0.04204496065896025    12  11  6  2
0.009759690488026843    12  11  8  6
0.01749715654754973    12  11  9  3
0.007180552103293015    12  11  11  1
0.0116338329235209    12  11  11  5
-0.01073876644466186    12  11  11  9
-0.01496183350982611    12  11  12  3
0.04343992053812833    12  11  12  11
0.4063145089550335    12  12  1  1
0.3796723215383206    12  12  2  2
0.3815891307319699    12  12  3  3
0.3815891307319694    12  12  4  4
0.01893231180086528    12  12  5  1
0.3758434515095227    12  12  5  5
0.3528514741103789    12  12  6  6
0.3528514741103788    12  12  7  7
0.04577239994806774    12  12  8  2
0.2672431366266501    12  12  8  8
-0.005036655572879916    12  12  9  1
-0.05935681426935205    12  12  9  5
0.3209261449145192    12  12  9  9
0.05421239809909992    12  12  10  4
0.3342399019851127    12  12  10  10
0.05421239809910001    12  12  11  3
0.3342399019851131    12  12  11  11
0.03295744580434558    12  12  12  1
-0.04311263789896171    12  12  12  5
-0.006345282071544552    12  12  12  9
0.3536181323058581    12  12  12  12
-0.01887734987329759    13  1  4  2
-0.01890618541201134    13  1  7  1
0.005662598173408872    13  1  7  5
-0.01163700214593423    13  1  8  4
-0.003912258148369358    13  1  9  7
-0.01146597695843409    13  1  10  2
-0.007587888369544941    13  1  10  8
-0.009264287148255465    13  1  12  7
0.0180517582980082    13  1  13  1
-0.02409900816837926    13  2  4  1
0.004407926430891798    13  2  5  4
-0.02048708954101066    13  2  7  2
-0.01278286610295844    13  2  8  7
-0.006372809991155312    13  2  9  4
-0.01582732942882938    13  2  10  1
0.003236074420204248    13  2  10  5
-1.20060149365326e-05    13  2  10  9
-0.01113153217338033    13  2  12  4
-0.008837330580192966    13  2  12  10
0.02074627945692137    13  2  13  2
-0.005175478214583812    13  3  6  4
-0.005175478214583812    13  3  7  3
-0.005193985293386595    13  3  10  6
-0.005193985293386598    13  3  11  7
0.006478978151675831    13  3  13  3
-0.04804308188720849    13  4  2  1
0.04630261925570128    13  4  5  2
-0.05070957963768856    13  4  6  3
-0.06106053606685617    13  4  7  4
-0.02752459838361446    13  4  8  1
0.002292424899645823    13  4  8  5
2.171413005999656e-15    13  4  8  8
-0.01862312247479463    13  4  9  2
-0.01135635756193762    13  4  9  8
-0.03947292055036879    13  4  10  7
-0.02908494996359567    13  4  11  6
-0.04074747079470529    13  4  12  2
-0.0186768487775411    13  4  12  8
0.05804757686540515    13  4  13  4
0.004178284020080331    13  5  4  2
0.001095662213455905    13  5  7  1
-0.003661364646245615    13  5  7  5
0.002866646669369433    13  5  8  4
0.006194068059669097    13  5  9  7
0.006444986431840582    13  5  10  2
-0.001332170718360329    13  5  10  8
0.008794585445540607    13  5  12  7
-0.003202986560369122    13  5  13  1
0.00990939136565324    13  5  13  5
-0.004788902680122039    13  6  4  3
-0.002575870543254196    13  6  7  6
-0.006115435314009233    13  6  10  3
-0.006115435314009235    13  6  11  4
-0.0006267243391538238    13  6  11  10
0.007364906047901734    13  6  13  6
-0.1304310826139112    13  7  1  1
-0.09399391810517629    13  7  2  2
-0.09949724266911562    13  7  3  3
-0.1090750480293597    13  7  4  4
-0.02398043390305686    13  7  5  1
-0.0925406852275355    13  7  5  5
-0.07750639573414873    13  7  6  6
-0.08265813682065702    13  7  7  7
-0.03509246524466406    13  7  8  2
-0.02899635198842014    13  7  8  8
0.01303897318203346    13  7  9  1
0.04716638380560292    13  7  9  5
-0.0580682846752325    13  7  9  9
-0.06239470491198914    13  7  10  4
-0.07118514573775127    13  7  10  10
-0.05016383428397078    13  7  11  3
-0.06993169705944385    13  7  11  11
-0.03470923826267655    13  7  12  1
0.02806332750064081    13  7  12  5
-0.001167917798467212    13  7  12  9
-0.07026932726326589    13  7  12  12
0.07095747475503129    13  7  13  7
-0.02557752538890547    13  8  4  1
0.006775521565940586    13  8  5  4
-0.0257892887887824    13  8  7  2
-0.002457192100341161    13  8  8  7
-0.004126193588538269    13  8  9  4
-0.009032975495446006    13  8  10  1
-0.006699582227373599    13  8  10  5
-0.00180436218671068    13  8  10  9
0.0006036636913248662    13  8  12  4
-0.01878930561189786    13  8  12  10
0.007584637649599532    13  8  13  2
0.01666943514522259    13  8  13  8
-0.009991095573052828    13  9  4  2
-0.006405844386797097    13  9  7  1
0.0120754434731322    13  9  7  5
-0.000570551308069241    13  9  8  4
0.000626088811627197    13  9  9  7
-0.0001978078411143792    13  9  10  2
-0.005978054680255645    13  9  10  8
-1.171982332681656e-05    13  9  12  7
0.001460446460624139    13  9  13  1
-0.001317533453178131    13  9  13  5
0.009338052043679358    13  9  13  9
-0.06831996197327604    13  10  2  1
0.08118099441514805    13  10  5  2
-0.07656294074909148    13  10  6  3
-0.09271214089160325    13  10  7  4
-0.02991293107774909    13  10  8  1
-0.01579379665737316    13  10  8  5
-0.01307655479788595    13  10  9  2
-0.04757081922865203    13  10  9  8
-0.01957022900713267    13  10  10  7
-0.01827407356022856    13  10  11  6
-0.03830155105846994    13  10  12  2
-0.0345960693387854    13  10  12  8
0.05280215518854999    13  10  13  4
0.08986242120041948    13  10  13  10
-0.008074600071255862    13  11  6  4
-0.008074600071255865    13  11  7  3
-0.0006480777234520491    13  11  10  6
-0.0006480777234520459    13  11  11  7
0.003607799887921909    13  11  13  3
0.00834338138068289    13  11  13  11
-0.02542332259707423    13  12  4  2
-0.0213879330939711    13  12  7  1
0.01961624559702722    13  12  7  5
-0.008759749458724458    13  12  8  4
-0.002810890466460789    13  12  9  7
-0.003914790047135789    13  12  10  2
-0.01028693824223916    13  12  10  8
-0.0004407652112552813    13  12  12  7
0.0112387693554478    13  12  13  1
-0.001097259044207189    13  12  13  5
0.009751074180496463    13  12  13  9
0.02307352042596024    13  12  13  12
0.4179570522724672    13  13  1  1
0.3729565500607679    13  13  2  2
0.3728936416540407    13  13  3  3
0.3965067242063101    13  13  4  4
0.02985432729222593    13  13  5  1
0.3699837547000087    13  13  5  5
0.3432910851830909    13  13  6  6
0.3671149114690894    13  13  7  7
0.04838862952264015    13  13  8  2
0.2676256613981467    13  13  8  8
-0.01684398387604186    13  13  9  1
-0.06393415162270552    13  13  9  5
0.3165090737893085    13  13  9  9
0.07485788521539315    13  13  10  4
0.3482470819648707    13  13  10  10
0.0706460077392915    13  13  11  3
0.3255713276102183    13  13  11  11
0.04381009357863111    13  13  12  1
-0.03571105625239245    13  13  12  5
-0.0006384733099186744    13  13  12  9
0.3400718930663729    13  13  12  12
-0.08520148743138421    13  13  13  7
0.3652446039773506    13  13  13  13
-0.01887734987329758    14  1  3  2
-0.01890618541201133    14  1  6  1
0.005662598173408869    14  1  6  5
-0.01163700214593422    14  1  8  3
-0.003912258148369358    14  1  9  6
-0.01146597695843408    14  1  11  2
-0.007587888369544925    14  1  11  8
-0.009264287148255472    14  1  12  6
0.01805175829800819    14  1  14  1
-0.02409900816837921    14  2  3  1
0.004407926430891772    14  2  5  3
-0.02048708954101062    14  2  6  2
-0.01278286610295843    14  2  8  6
-0.006372809991155295    14  2  9  3
-0.01582732942882937    14  2  11  1
0.003236074420204261    14  2  11  5
-1.200601493653014e-05    14  2  11  9
-0.01113153217338034    14  2  12  3
-0.008837330580192931    14  2  12  11
0.02074627945692134    14  2  14  2
-0.04804308188720843    14  3  2  1
0.04630261925570121    14  3  5  2
-0.06106053606685614    14  3  6  3
-0.05070957963768847    14  3  7  4
-0.02752459838361445    14  3  8  1
0.002292424899645835    14  3  8  5
2.198843320963539e-15    14  3  8  8
-0.01862312247479462    14  3  9  2
-0.01135635756193758    14  3  9  8
-0.02908494996359561    14  3  10  7
-0.03947292055036881    14  3  11  6
-0.04074747079470527    14  3  12  2
-0.01867684877754108    14  3  12  8
0.04508962056205345    14  3  13  4
0.04558655541270611    14  3  13  10
0.05804757686540511    14  3  14  3
-0.005175478214583802    14  4  6  4
-0.0051754782145838    14  4  7  3
-0.005193985293386596    14  4  10  6
-0.005193985293386597    14  4  11  7
0.006478978151675827    14  4  13  3
0.003607799887921904    14  4  13  11
0.006478978151675823    14  4  14  4
0.004178284020080299    14  5  3  2
0.001095662213455889    14  5  6  1
-0.003661364646245604    14  5  6  5
0.002866646669369426    14  5  8  3
0.006194068059669097    14  5  9  6
0.006444986431840581    14  5  11  2
-0.001332170718360324    14  5  11  8
0.00879458544554061    14  5  12  6
-0.003202986560369113    14  5  14  1
0.009909391365653244    14  5  14  5
-0.1304310826139111    14  6  1  1
-0.09399391810517622    14  6  2  2
-0.1090750480293596    14  6  3  3
-0.0994972426691155    14  6  4  4
-0.02398043390305686    14  6  5  1
-0.09254068522753543    14  6  5  5
-0.08265813682065715    14  6  6  6
-0.0775063957341485    14  6  7  7
-0.03509246524466407    14  6  8  2
-0.02899635198842018    14  6  8  8
0.01303897318203346    14  6  9  1
0.04716638380560293    14  6  9  5
-0.05806828467523243    14  6  9  9
-0.05016383428397073    14  6  10  4
-0.06993169705944365    14  6  10  10
-0.06239470491198926    14  6  11  3
-0.07118514573775145    14  6  11  11
-0.03470923826267655    14  6  12  1
0.0280633275006408    14  6  12  5
-0.001167917798467212    14  6  12  9
-0.0702693272632659    14  6  12  12
0.05622766265922768    14  6  13  7
-0.08025515982451029    14  6  13  13
0.07095747475503125    14  6  14  6
-0.004788902680122016    14  7  4  3
-0.002575870543254172    14  7  7  6
-0.006115435314009235    14  7  10  3
-0.006115435314009235    14  7  11  4
-0.000626724339153809    14  7  11  10
0.007364906047901736    14  7  13  6
0.007364906047901733    14  7  14  7
-0.02557752538890552    14  8  3  1
0.00677552156594058    14  8  5  3
-0.02578928878878241    14  8  6  2
-0.002457192100341175    14  8  8  6
-0.004126193588538276    14  8  9  3
-0.009032975495446061    14  8  11  1
-0.006699582227373592    14  8  11  5
-0.001804362186710646    14  8  11  9
0.0006036636913248564    14  8  12  3
-0.01878930561189793    14  8  12  11
0.007584637649599537    14  8  14  2
0.01666943514522244    14  8  14  8
-0.009991095573052828    14  9  3  2
-0.006405844386797069    14  9  6  1
0.01207544347313219    14  9  6  5
-0.0005705513080692326    14  9  8  3
0.0006260888116271954    14  9  9  6
-0.0001978078411143826    14  9  11  2
-0.005978054680255639    14  9  11  8
-1.171982332682236e-05    14  9  12  6
0.001460446460624124    14  9  14  1
-0.001317533453178111    14  9  14  5
0.009338052043679341    14  9  14  9
-0.008074600071255862    14  10  6  4
-0.008074600071255862    14  10  7  3
-0.0006480777234520465    14  10  10  6
-0.0006480777234520407    14  10  11  7
0.003607799887921906    14  10  13  3
0.00834338138068289    14  10  13  11
0.003607799887921901    14  10  14  4
0.008343381380682887    14  10  14  10
-0.06831996197327607    14  11  2  1
0.08118099441514808    14  11  5  2
-0.09271214089160339    14  11  6  3
-0.07656294074909147    14  11  7  4
-0.02991293107774909    14  11  8  1
-0.01579379665737318    14  11  8  5
-0.01307655479788594    14  11  9  2
-0.04757081922865208    14  11  9  8
-0.01827407356022857    14  11  10  7
-0.01957022900713273    14  11  11  6
-0.03830155105846995    14  11  12  2
-0.03459606933878542    14  11  12  8
0.04558655541270617    14  11  13  4
0.07317565843905374    14  11  13  10
0.05280215518854992    14  11  14  3
0.0898624212004195    14  11  14  11
-0.02542332259707423    14  12  3  2
-0.02138793309397112    14  12  6  1
0.01961624559702724    14  12  6  5
-0.008759749458724446    14  12  8  3
-0.002810890466460786    14  12  9  6
-0.003914790047135782    14  12  11  2
-0.01028693824223908    14  12  11  8
-0.0004407652112552885    14  12  12  6
0.01123876935544778    14  12  14  1
-0.001097259044207139    14  12  14  5
0.009751074180496469    14  12  14  9
0.02307352042596027    14  12  14  12
0.01180654127613471    14  13  4  3
0.01191191314299931    14  13  7  6
0.002105938738050863    14  13  10  3
0.002105938738050863    14  13  11  4
0.0113378771773264    14  13  11  10
-0.002473163803436922    14  13  13  6
-0.002473163803436902    14  13  14  7
0.01265293851806888    14  13  14  13
0.4179570522724671    14  14  1  1