 &FCI NORB=26,NELEC=8,MS2=0,
  ORBSYM=1,5,1,2,3,6,7,5,5,2,3,1,6,7,1,5,3,2,1,4,1,8,5,7,6,5,
  ISYM=1,
 &END
0.4633359639015515    1  1  1  1
0.1317053756485362    2  1  2  1
0.4041388452598495    2  2  1  1
0.4132593408912992    2  2  2  2
0.06335108634331973    3  1  1  1
-0.005179703114083759    3  1  2  2
0.06923406363400574    3  1  3  1
-0.08936930233360683    3  2  2  1
0.1030161308548223    3  2  3  2
0.4150087785029277    3  3  1  1
0.404544232030116    3  3  2  2
0.01613363885117421    3  3  3  1
0.4204941912318877    3  3  3  3
0.0618471765022721    4  1  4  1
0.04439145470858648    4  2  4  2
-0.0009872998003408531    4  3  4  1
0.01636916008588559    4  3  4  3
0.4034928108949667    4  4  1  1
0.3742306064965858    4  4  2  2
0.03122876278746887    4  4  3  1
0.3678626253098928    4  4  3  3
0.3855369110979601    4  4  4  4
0.05809342513287392    5  1  5  1
0.04115165828397627    5  2  5  2
-0.001301343310143902    5  3  5  1
0.01562751980398237    5  3  5  3
0.01390366421928045    5  4  5  4
0.3884159612656175    5  5  1  1
0.3607448488979198    5  5  2  2
0.02920707478685281    5  5  3  1
0.3550324725752547    5  5  3  3
0.3455538683836197    5  5  4  4
0.3629388107851483    5  5  5  5
0.04290450098481578    6  1  4  2
0.04242330480265227    6  1  6  1
0.05693519422125416    6  2  4  1
-0.01291970640618386    6  2  4  3
0.06151485304219884    6  2  6  2
-0.01877748216379057    6  3  4  2
-0.01502851095221391    6  3  6  1
0.01860519501745543    6  3  6  3
0.1286293752397484    6  4  2  1
-0.08401021497997907    6  4  3  2
0.1436347113140526    6  4  6  4
0.01169339792873077    6  5  6  5
0.3928294168806326    6  6  1  1
0.3824144142976072    6  6  2  2
0.01289501765049499    6  6  3  1
0.3700242276960077    6  6  3  3
0.3803446974871075    6  6  4  4
0.3408856156947524    6  6  5  5
0.383961611587463    6  6  6  6
0.04019339877206052    7  1  5  2
0.04025817762025417    7  1  7  1
0.05404310142140725    7  2  5  1
-0.01272381089554086    7  2  5  3
0.05911189249483556    7  2  7  2
-0.01822406679033096    7  3  5  2
-0.01470666073385114    7  3  7  1
0.01799611075834313    7  3  7  3
0.01185110492183866    7  4  6  5
0.01201551087726504    7  4  7  4
0.120591163588509    7  5  2  1
-0.0802034224977165    7  5  3  2
0.111885524201781    7  5  6  4
0.1286500277087293    7  5  7  5
0.01346419070072471    7  6  5  4
0.01447491375044407    7  6  7  6
0.3821240054900603    7  7  1  1
0.3724206787927571    7  7  2  2
0.01189758629914172    7  7  3  1
0.3606052514045729    7  7  3  3
0.3442536127516114    7  7  4  4
0.3598807982656758    7  7  5  5
0.3457637176423581    7  7  6  6
0.366347378816133    7  7  7  7
0.04921740699234354    8  1  2  1
0.009265169999777048    8  1  3  2
0.04956937947567581    8  1  6  4
0.04473953933677139    8  1  7  5
0.06280564081819223    8  1  8  1
0.06292165327328443    8  2  1  1
0.01191486956518415    8  2  2  2
0.05090703740398479    8  2  3  1
0.01267930500853207    8  2  3  3
0.04317656624743213    8  2  4  4
0.03966076776498899    8  2  5  5
0.03092889769752943    8  2  6  6
0.02876712430225431    8  2  7  7
0.05096317344816596    8  2  8  2
0.110112233452217    8  3  2  1
-0.08184156737835177    8  3  3  2
0.1013258928401127    8  3  6  4
0.09529464973075517    8  3  7  5
0.03808537749868531    8  3  8  1
0.111711944415708    8  3  8  3
0.01483260163134492    8  4  4  2
0.01774647322242491    8  4  6  1
0.005460639367992026    8  4  6  3
0.01792207968662882    8  4  8  4
0.01253510672055506    8  5  5  2
0.01561833555956332    8  5  7  1
0.005363242160780357    8  5  7  3
0.01591900487103907    8  5  8  5
0.02351655599787739    8  6  4  1
0.009923134118368294    8  6  4  3
0.01487613762858192    8  6  6  2
0.0190839542753216    8  6  8  6
0.02146186722450479    8  7  5  1
0.009484402772237771    8  7  5  3
0.01356238807082229    8  7  7  2
0.0180036702170804    8  7  8  7
0.425062768757121    8  8  1  1
0.387370819892482    8  8  2  2
0.04328215479799195    8  8  3  1
0.4024218430705641    8  8  3  3
0.370957280158854    8  8  4  4
0.3571626201714225    8  8  5  5
0.3671444118619778    8  8  6  6
0.3574765061437068    8  8  7  7
0.04056640996431876    8  8  8  2
0.4130862498169817    8  8  8  8
0.00409117285734274    9  1  2  1
-0.02082784937325965    9  1  3  2
0.002781637290370875    9  1  6  4
0.00234682001122276    9  1  7  5
-0.0174341132976143    9  1  8  1
-0.001417971463810705    9  1  8  3
0.01485141741885555    9  1  9  1
0.03230572363002702    9  2  1  1
0.05526394129297633    9  2  2  2
-0.02174262929691115    9  2  3  1
0.04898319012479576    9  2  3  3
0.03271602470843082    9  2  4  4
0.02930212666417073    9  2  5  5
0.03866302226509329    9  2  6  6
0.03571424200613591    9  2  7  7
-0.01251204359636798    9  2  8  2
0.0287616400303162    9  2  8  8
0.03373201668943623    9  2  9  2
-0.06617643412098641    9  3  2  1
0.04492236105967099    9  3  3  2
-0.05800277244172573    9  3  6  4
-0.05182218763751045    9  3  7  5
-0.02907586845937906    9  3  8  1
-0.0573807364864501    9  3  8  3
-0.01047906210525007    9  3  9  1
0.06524877924348163    9  3  9  3
0.002383356418409964    9  4  4  2
0.0009566680779661905    9  4  6  1
-0.004568271599335763    9  4  6  3
-0.002766589912178223    9  4  8  4
0.006099926258789756    9  4  9  4
0.001121264918551839    9  5  5  2
0.0001060109998544337    9  5  7  1
-0.00317055899472831    9  5  7  3
-0.001997834961008104    9  5  8  5
0.005729442248317559    9  5  9  5
-0.0008111500209615674    9  6  4  1
-0.004958453693837184    9  6  4  3
0.002637671888502782    9  6  6  2
-0.002511871189151083    9  6  8  6
0.008528676898602474    9  6  9  6
-0.001818141876701346    9  7  5  1
-0.003693108989339011    9  7  5  3
0.001054227672393298    9  7  7  2
-0.001923785696150507    9  7  8  7
0.008370522946951042    9  7  9  7
-0.09965441626427538    9  8  1  1
-0.07824610210618485    9  8  2  2
-0.02463976765209835    9  8  3  1
-0.08465674636965034    9  8  3  3
-0.07396785918237592    9  8  4  4
-0.06706117373094975    9  8  5  5
-0.07049648034406306    9  8  6  6
-0.06541447669638291    9  8  7  7
-0.02610081714248508    9  8  8  2
-0.0864579867195828    9  8  8  8
-0.02508027387185431    9  8  9  2
0.05962879400259431    9  8  9  8
0.3302762997214468    9  9  1  1
0.3481015268417944    9  9  2  2
-0.0128416581415962    9  9  3  1
0.3541764977292047    9  9  3  3
0.306122837179075    9  9  4  4
0.2964436773299784    9  9  5  5
0.3160183797342573    9  9  6  6
0.3089484461377882    9  9  7  7
-0.009047892669923755    9  9  8  2
0.3391718906916887    9  9  8  8
0.04063150218772345    9  9  9  2
-0.05081015409421537    9  9  9  8
0.3345885329921914    9  9  9  9
0.01676147930237149    10  1  4  1
-0.004117618523902706    10  1  4  3
0.01967107391846257    10  1  6  2
0.008294700065743744    10  1  8  6
0.004425984117443767    10  1  9  6
0.01829507833311241    10  1  10  1
0.0229244450867412    10  2  4  2
0.02230960628182245    10  2  6  1
-0.008865792809475291    10  2  6  3
0.00888995634172488    10  2  8  4
0.005581304964190021    10  2  9  4
0.02068184725164762    10  2  10  2
-0.007568824939836061    10  3  4  1
0.005693240098386268    10  3  4  3
-0.01034877433650426    10  3  6  2
0.001370540638332185    10  3  8  6
-0.007158558386784115    10  3  9  6
-0.003414136918860021    10  3  10  1
0.008271613212180749    10  3  10  3
0.08033175663082227    10  4  1  1
0.08230546867823599    10  4  2  2
0.0007607954850221045    10  4  3  1
0.07541596134433086    10  4  3  3
0.06663114597499055    10  4  4  4
0.05533720341716346    10  4  5  5
0.07460933347601852    10  4  6  6
0.06253929531644971    10  4  7  7
0.01254933487416471    10  4  8  2
0.07656615044553515    10  4  8  8
0.02400680245487138    10  4  9  2
-0.03815330771810771    10  4  9  8
0.06137471145135718    10  4  9  9
0.05868341543739754    10  4  10  4
0.0004916491961689568    10  5  5  4
0.002131069114016529    10  5  7  6
0.006744599256047587    10  5  10  5
0.06922914914296892    10  6  2  1
-0.04002483785615289    10  6  3  2
0.06982470012654451    10  6  6  4
0.05450685865350992    10  6  7  5
0.03390133456961221    10  6  8  1
0.0530254995406158    10  6  8  3
0.005351830018180123    10  6  9  1
-0.04941292021665551    10  6  9  3
0.06284557420519156    10  6  10  6
0.003467487021199934    10  7  6  5
0.00365030392041703    10  7  7  4
0.006115183344589492    10  7  10  7
0.01034224004087512    10  8  4  2
0.01195780367452163    10  8  6  1
0.001284654788513916    10  8  6  3
0.009501514118944218    10  8  8  4
-0.003990054679365713    10  8  9  4
0.006686823944462256    10  8  10  2
0.009867627784402455    10  8  10  8
0.01352564677950718    10  9  4  2
0.01080097358284962    10  9  6  1
-0.01308044690971335    10  9  6  3
-0.003764816511233303    10  9  8  4
0.003399219621018798    10  9  9  4
0.006498352360352628    10  9  10  2
-0.001133618794806223    10  9  10  8
0.01179545537919337    10  9  10  9
0.3768466925296879    10  10  1  1
0.3588644840480719    10  10  2  2
0.02055842636125626    10  10  3  1
0.3507464095228001    10  10  3  3
0.3627616436676372    10  10  4  4
0.3278098768227617    10  10  5  5
0.361156046256813    10  10  6  6
0.3294468103728353    10  10  7  7
0.0351232409737746    10  10  8  2
0.3521611728530465    10  10  8  8
0.03684708911373206    10  10  9  2
-0.07232479330252654    10  10  9  8
0.3032216682413412    10  10  9  9
0.06858585451854216    10  10  10  4
0.3587243065022838    10  10  10  10
0.01977111751599014    11  1  5  1
-0.00436580556237244    11  1  5  3
0.02307151142039624    11  1  7  2
0.00939437001027184    11  1  8  7
0.004170565254418434    11  1  9  7
0.02121401519900643    11  1  11  1
0.02488596098699861    11  2  5  2
0.024740872620499    11  2  7  1
-0.01018995795488642    11  2  7  3
0.0090201731842228    11  2  8  5
0.00537470924097413    11  2  9  5
0.02473471894918216    11  2  11  2
-0.007912712624257544    11  3  5  1
0.006502419729453029    11  3  5  3
-0.01144081052912482    11  3  7  2
0.001860610831050795    11  3  8  7
-0.00713852211114293    11  3  9  7
-0.004580824054489446    11  3  11  1
0.009434916695745326    11  3  11  3
0.002548960902870156    11  4  5  4
0.004173843813248924    11  4  7  6
0.006903751372406585    11  4  10  5
0.007391702363367907    11  4  11  4
0.08086400016649729    11  5  1  1
0.082723260004345    11  5  2  2
0.0007906359338263711    11  5  3  1
0.07587867102149673    11  5  3  3
0.06302579712478602    11  5  4  4
0.05794316744589816    11  5  5  5
0.06799081593066406    11  5  6  6
0.0686048907101208    11  5  7  7
0.0123837364947517    11  5  8  2
0.07668013459894696    11  5  8  8
0.02372509278996144    11  5  9  2
-0.0375953325376913    11  5  9  8
0.06109177640975705    11  5  9  9
0.04393288128701413    11  5  10  4
0.06424497541150673    11  5  10  10
0.05704937482806204    11  5  11  5
0.004982644621222052    11  6  6  5
0.005187261113137488    11  6  7  4
0.006623423101722985    11  6  10  7
0.007337927736484027    11  6  11  6
0.07272538777565875    11  7  2  1
-0.04260116466123993    11  7  3  2
0.06390484366007074    11  7  6  4
0.06577003849216886    11  7  7  5
0.03485782167627441    11  7  8  1
0.05566606747886686    11  7  8  3
0.005483117056886996    11  7  9  1
-0.05049272322028845    11  7  9  3
0.05085583992586538    11  7  10  6
0.06559849080029963    11  7  11  7
0.01050144374955763    11  8  5  2
0.01252397729875212    11  8  7  1
0.001556277831240827    11  8  7  3
0.009719465123813094    11  8  8  5
-0.004010590099592586    11  8  9  5
0.008077054132746838    11  8  11  2
0.01123655144699687    11  8  11  8
0.01343121159201194    11  9  5  2
0.01077171103814991    11  9  7  1
-0.013158312568025    11  9  7  3
-0.00391608887082502    11  9  8  5
0.002985586647220389    11  9  9  5
0.008287128174475614    11  9  11  2
-0.00182182114261467    11  9  11  8
0.01236476389132455    11  9  11  9
0.01171872252036282    11  10  5  4
0.01169007449268394    11  10  7  6
0.001442514805511285    11  10  10  5
0.003459725375497044    11  10  11  4
0.01326873781012946    11  10  11  10
0.3899942745774505    11  11  1  1
0.3725884250815653    11  11  2  2
0.02041768352655692    11  11  3  1
0.3633040130999287    11  11  3  3
0.3494077853409475    11  11  4  4
0.3603265605725342    11  11  5  5
0.3490382869462474    11  11  6  6
0.3633834363483905    11  11  7  7
0.03693330196378784    11  11  8  2
0.3646291078099725    11  11  8  8
0.04097644838839191    11  11  9  2
-0.07852596672477977    11  11  9  8
0.3134015454125887    11  11  9  9
0.07196899805322567    11  11  10  4
0.3433667372888807    11  11  10  10
0.07730391816351552    11  11  11  5
0.382764410208648    11  11  11  11
-0.03486357781219909    12  1  1  1
-0.04554155419152266    12  1  2  2
0.009657365038684579    12  1  3  1
-0.03819362787099512    12  1  3  3
-0.03181123680107789    12  1  4  4
-0.02788065807031926    12  1  5  5
-0.03598895778108503    12  1  6  6
-0.03294620326002212    12  1  7  7
0.0001810806854476616    12  1  8  2
-0.03126243940085387    12  1  8  8
-0.02160656805063393    12  1  9  2
0.0211498338631673    12  1  9  8
-0.0320105428998366    12  1  9  9
-0.02534087060829239    12  1  10  4
-0.03480270142437454    12  1  10  10
-0.02492711046658201    12  1  11  5
-0.03901358322185585    12  1  11  11
0.01747581339388914    12  1  12  1
-0.04932726846137581    12  2  2  1
0.03827652003586734    12  2  3  2
-0.04382058865543646    12  2  6  4
-0.03861587190915805    12  2  7  5
-0.01516685926818205    12  2  8  1
-0.03606847032340379    12  2  8  3
-0.01434275769879953    12  2  9  1
0.04890269671138142    12  2  9  3
-0.0417309838334818    12  2  10  6
-0.04250878586911197    12  2  11  7
0.04265134360499272    12  2  12  2
0.06906338765105528    12  3  1  1
0.07088427348240839    12  3  2  2
0.0004169479583435534    12  3  3  1
0.07070071269907334    12  3  3  3
0.05615264827367847    12  3  4  4
0.05052071519589268    12  3  5  5
0.05726399447874945    12  3  6  6
0.05280999508361423    12  3  7  7
0.006221518348524077    12  3  8  2
0.05832149282303657    12  3  8  8
0.03415253348253065    12  3  9  2
-0.04478156429459564    12  3  9  8
0.04968658991146255    12  3  9  9
0.03398395448229569    12  3  10  4
0.05831955209732456    12  3  10  10
0.03349040085761482    12  3  11  5
0.06399636767804615    12  3  11  11
-0.02447056298447373    12  3  12  1
0.04467780475344472    12  3  12  3
-0.003094450688995817    12  4  4  1
0.003126072734914335    12  4  4  3
-0.005572764956282549    12  4  6  2
-0.002103251194031939    12  4  8  6
-0.00782896367607005    12  4  9  6
-0.01049607251421397    12  4  10  1
0.005762863209854753    12  4  10  3
0.0104869729992096    12  4  12  4
0.0001082691497541643    12  5  5  1
0.001845510716844289    12  5  5  3
-0.002086895919860257    12  5  7  2
-0.001817364412531321    12  5  8  7
-0.007853858513470317    12  5  9  7
-0.009830412805118302    12  5  11  1
0.005421450448961188    12  5  11  3
0.01047436988803286    12  5  12  5
-0.007685346486842844    12  6  4  2
-0.007267768849918634    12  6  6  1
0.002785650196597084    12  6  6  3
-0.003582113751143497    12  6  8  4
-0.007170560659846813    12  6  9  4
-0.0135528021273555    12  6  10  2
-0.0004833344069745819    12  6  10  8
-0.002106163175068576    12  6  10  9
0.01330124870559128    12  6  12  6
-0.004969356099345831    12  7  5  2
-0.005124254548137355    12  7  7  1
0.001298730965151748    12  7  7  3
-0.003337522917176369    12  7  8  5
-0.00711938286652873    12  7  9  5
-0.01326207358656326    12  7  11  2
-0.0004377967801371551    12  7  11  8
-0.001866605935046339    12  7  11  9
0.0131963687040785    12  7  12  7
-0.004413328312396453    12  8  2  1
0.006191989066090111    12  8  3  2
-0.007604414740602079    12  8  6  4
-0.008903420300220351    12  8  7  5
0.003976111617473816    12  8  8  1
-0.007415411237478587    12  8  8  3
0.007376846756887786    12  8  9  1
-0.02317772865590915    12  8  9  3
0.008047173332487183    12  8  10  6
0.007602990690090806    12  8  11  7
-0.01783252859716822    12  8  12  2
0.02305504976064427    12  8  12  8
-0.112707238594909    12  9  2  1
0.1098295734640166    12  9  3  2
-0.1078199751096455    12  9  6  4
-0.1028633118962755    12  9  7  5
-0.01037659785857254    12  9  8  1
-0.1113339225074313    12  9  8  3
-0.0105249500594135    12  9  9  1
0.04902650352113141    12  9  9  3
-0.04928272848432715    12  9  10  6
-0.05207327332678539    12  9  11  7
0.03719068856227647    12  9  12  2
0.01791488213797474    12  9  12  8
0.146126243407152    12  9  12  9
-0.0306408265200052    12  10  4  1
0.01032251563446517    12  10  4  3
-0.03512107730798669    12  10  6  2
-0.004502513173629199    12  10  8  6
-0.00167983386270996    12  10  9  6
-0.009351915823047474    12  10  10  1
0.007204848680779953    12  10  10  3
0.002181441314232445    12  10  12  4
0.02484954758652104    12  10  12  10
-0.02992050346381741    12  11  5  1
0.01038099858085789    12  11  5  3
-0.03480191227791801    12  11  7  2
-0.004265557568503237    12  11  8  7
-0.0013830481746227    12  11  9  7
-0.01270108024014338    12  11  11  1
0.008824588666688548    12  11  11  3
0.001095320087859372    12  11  12  5
0.0251423468918747    12  11  12  11
0.3149221730234726    12  12  1  1
0.3396928021688378    12  12  2  2
-0.02137360879613662    12  12  3  1
0.337757655075746    12  12  3  3
0.3004843183985724    12  12  4  4
0.2923471976686185    12  12  5  5
0.3114321388474248    12  12  6  6
0.3054128449758839    12  12  7  7
-0.01294451245488153    12  12  8  2
0.318671414500011    12  12  8  8
0.03881544130931629    12  12  9  2
-0.03929681317680275    12  12  9  8
0.3192783695043614    12  12  9  9
0.05308741506701827    12  12  10  4
0.2965271415864055    12  12  10  10
0.05308745363060655    12  12  11  5
0.3054078010452449    12  12  11  11
-0.02948213425407628    12  12  12  1
0.04260069555562208    12  12  12  3
0.3121315065385727    12  12  12  12
-0.01781778538682555    13  1  4  2
-0.01878508162533486    13  1  6  1
0.002278168429599571    13  1  6  3
-0.01193538482362787    13  1  8  4
-0.002396802742610349    13  1  9  4
-0.01715963387695153    13  1  10  2
-0.008679397737434305    13  1  10  8
-0.001850764705879555    13  1  10  9
0.0109145871665967    13  1  12  6
0.01654655212851309    13  1  13  1
-0.01797114503237602    13  2  4  1
0.001675542967783928    13  2  4  3
-0.01839155727461381    13  2  6  2
-0.009623658962435715    13  2  8  6
-0.006787135069094547    13  2  9  6
-0.01673706132650392    13  2  10  1
0.006202977462082532    13  2  10  3
0.01197690166546221    13  2  12  4
0.008857166574918505    13  2  12  10
0.01803783753879003    13  2  13  2
-0.0001674294713736204    13  3  4  2
-0.001552124581554028    13  3  6  1
-0.003365062651396693    13  3  6  3
-0.003445991608524547    13  3  8  4
0.006621807878312038    13  3  9  4
0.004839938014052335    13  3  10  2
-0.004944804740932434    13  3  10  8
0.002872702283095143    13  3  10  9
-0.007649555946464801    13  3  12  6
-0.001748299579388362    13  3  13  1
0.0074813764453283    13  3  13  3
-0.05224862969924265    13  4  2  1
0.02347140365627761    13  4  3  2
-0.051370019908547    13  4  6  4
-0.03963975280859201    13  4  7  5
-0.03291975219114042    13  4  8  1
-0.03948741227946587    13  4  8  3
-0.002581932301293859    13  4  9  1
0.04155001684814885    13  4  9  3
-0.05367281552574715    13  4  10  6
-0.04250092494534186    13  4  11  7
0.03492250976646858    13  4  12  2
-0.009330669808401753    13  4  12  8
0.03118022255950791    13  4  12  9
0.04802877121530174    13  4  13  4
-0.001874877304750893    13  5  6  5
-0.002042748114117472    13  5  7  4
-0.005482321756328903    13  5  10  7
-0.005762319913318284    13  5  11  6
0.005271117192645488    13  5  13  5
-0.09456336314190639    13  6  1  1
-0.08442750676950693    13  6  2  2
-0.01256483003716998    13  6  3  1
-0.08012218647294254    13  6  3  3
-0.07761142709960651    13  6  4  4
-0.06448764691513341    13  6  5  5
-0.07915433167069984    13  6  6  6
-0.06744707137992267    13  6  7  7
-0.02200878813889398    13  6  8  2
-0.08457416052337409    13  6  8  8
-0.02397556834657031    13  6  9  2
0.04494135786125458    13  6  9  8
-0.05911379638641803    13  6  9  9
-0.05730401975484366    13  6  10  4
-0.07880722387140604    13  6  10  10
-0.04392474190275748    13  6  11  5
-0.08034303258767325    13  6  11  11
0.02567417529769733    13  6  12  1
-0.03818854163638032    13  6  12  3
-0.04965644296220446    13  6  12  12
0.06208271157565198    13  6  13  6
-0.001596172004558843    13  7  5  4
-0.002035238155753894    13  7  7  6
-0.005998847593290335    13  7  10  5
-0.006325295368471005    13  7  11  4
-0.002696612651947407    13  7  11  10
0.006593121246954466    13  7  13  7
-0.02043508308957183    13  8  4  1
-0.002258503992848631    13  8  4  3
-0.01789033299236236    13  8  6  2
-0.01062425022411089    13  8  8  6
0.005294305499281425    13  8  9  6
-0.009269110237371243    13  8  10  1
-0.003049373595620986    13  8  10  3
-0.0003652433746110537    13  8  12  4
0.008983316385246336    13  8  12  10
0.006731276590345226    13  8  13  2
0.01370771985054809    13  8  13  8
-0.01184430966372853    13  9  4  1
0.01155611776824501    13  9  4  3
-0.01856196896363388    13  9  6  2
0.005327416594537111    13  9  8  6
-0.001215998811207539    13  9  9  6
-0.0020438224501101    13  9  10  1
0.005165802789449205    13  9  10  3
-0.0005052581175551565    13  9  12  4
0.01638397029955332    13  9  12  10
0.0009050184279555865    13  9  13  2
0.002156940835731255    13  9  13  8
0.01555757445173179    13  9  13  9
-0.1154237061820363    13  10  2  1
0.07580415681719974    13  10  3  2
-0.1269768387414064    13  10  6  4
-0.1013873558839942    13  10  7  5
-0.04535320082807368    13  10  8  1
-0.09404037473332826    13  10  8  3
-0.002209625704671608    13  10  9  1
0.05667347834601091    13  10  9  3
-0.06771464074245938    13  10  10  6
-0.06224344880590466    13  10  11  7
0.04297497142828764    13  10  12  2
0.00593723966520533    13  10  12  8
0.1042794796516689    13  10  12  9
0.05075408116890642    13  10  13  4
0.1253240243052827    13  10  13  10
-0.009168331065203407    13  11  6  5
-0.009331835323573262    13  11  7  4
-0.003836067187512787    13  11  10  7
-0.005183855096589583    13  11  11  6
0.002398225707821738    13  11  13  5
0.009969485680589684    13  11  13  11
0.02821167227514109    13  12  4  2
0.02576735623065079    13  12  6  1
-0.01720565264956095    13  12  6  3
0.003205430345298812    13  12  8  4
0.0007132305635897121    13  12  9  4
0.01191236393195905    13  12  10  2
0.005411815845311964    13  12  10  8
0.01511355554556437    13  12  10  9
-0.0007496078887784239    13  12  12  6
-0.00715931928341256    13  12  13  1
-0.0009369950011478212    13  12  13  3
0.02639745298032193    13  12  13  12
0.3562195493815113    13  13  1  1
0.3451575643819722    13  13  2  2
0.01384899728199926    13  13  3  1
0.337178861538682    13  13  3  3
0.343659510358669    13  13  4  4
0.3122340119770624    13  13  5  5
0.3468857536880388    13  13  6  6
0.3168421090604029    13  13  7  7
0.02787581048244816    13  13  8  2
0.3386229830669057    13  13  8  8
0.03137125658243554    13  13  9  2
-0.06217581558385887    13  13  9  8
0.2984428672399579    13  13  9  9
0.06488864088286385    13  13  10  4
0.339715115415616    13  13  10  10
0.0602985367147215    13  13  11  5
0.3268152501863592    13  13  11  11
-0.03062419442522173    13  13  12  1
0.04903325265393948    13  13  12  3
0.2927230545956833    13  13  12  12
-0.06873064185868666    13  13  13  6
0.3293396452746312    13  13  13  13
-0.01870283215031021    14  1  5  2
-0.02017479960740434    14  1  7  1
0.002977508128146494    14  1  7  3
-0.0118482200249892    14  1  8  5
-0.002419732537357793    14  1  9  5
-0.01999834337560575    14  1  11  2
-0.01020085034184632    14  1  11  8
-0.002771205272995912    14  1  11  9
0.01077522748456101    14  1  12  7
0.01876859401517633    14  1  14  1
-0.01959619335425225    14  2  5  1
0.00215636652440325    14  2  5  3
-0.0207686324008024    14  2  7  2
-0.01005957701989489    14  2  8  7
-0.006752978575656394    14  2  9  7
-0.01944420191799937    14  2  11  1
0.0071345933482771    14  2  11  3
0.01149691387935036    14  2  12  5
0.01191340106931823    14  2  12  11
0.02029871670619204    14  2  14  2
0.0006084979862844336    14  3  5  2
-0.0007875378179396601    14  3  7  1
-0.004000751333665738    14  3  7  3
-0.003258463036405086    14  3  8  5
0.006628936438314962    14  3  9  5
0.00547681168211618    14  3  11  2
-0.00524906935162885    14  3  11  8
0.004221045001517826    14  3  11  9
-0.007760933996697191    14  3  12  7
-0.001861622749434415    14  3  14  1
0.007905793272139201    14  3  14  3
-0.003331224052424751    14  4  6  5
-0.00352166507372771    14  4  7  4
-0.00598584495448288    14  4  10  7
-0.006467244753211532    14  4  11  6
0.00556446412785264    14  4  13  5
0.003765716465418846    14  4  13  11
0.006058006678790282    14  4  14  4
-0.04941952462269801    14  5  2  1
0.02189254077328332    14  5  3  2
-0.04232454556580564    14  5  6  4
-0.0415968192599336    14  5  7  5
-0.0314316552253454    14  5  8  1
-0.0369599104371772    14  5  8  3
-0.002707583569333273    14  5  9  1
0.03986796419054895    14  5  9  3
-0.03993963894619709    14  5  10  6
-0.05233088599518343    14  5  11  7
0.03368644107874498    14  5  12  2
-0.009424584422430887    14  5  12  8
0.02838430324966472    14  5  12  9
0.03516415926581212    14  5  13  4
0.04208689419582532    14  5  13  10
0.04478273033634729    14  5  14  5
-0.002967551703118128    14  6  5  4
-0.003517551244498789    14  6  7  6
-0.006206792148180898    14  6  10  5
-0.006754882243332568    14  6  11  4
-0.004046187344823564    14  6  11  10
0.006790419898778638    14  6  13  7
0.00714973881999678    14  6  14  6
-0.09613995280160188    14  7  1  1
-0.08605743301472224    14  7  2  2
-0.01248073602023316    14  7  3  1
-0.08154707606738393    14  7  3  3
-0.07344281117617132    14  7  4  4
-0.06944175198081672    14  7  5  5
-0.07429348140279975    14  7  6  6
-0.07366168058072943    14  7  7  7
-0.02207724251962549    14  7  8  2
-0.08575739097462194    14  7  8  8
-0.02420429121608222    14  7  9  2
0.04514215378085609    14  7  9  8
-0.05976930640523272    14  7  9  9
-0.04480572888251726    14  7  10  4
-0.07384601652248479    14  7  10  10
-0.05664252836176458    14  7  11  5
-0.08890800596237998    14  7  11  11
0.02580346355761677    14  7  12  1
-0.03839375173541227    14  7  12  3
-0.05042673056716877    14  7  12  12
0.04868710040504744    14  7  13  6
-0.06592609333723626    14  7  13  13
0.06257312234054704    14  7  14  7
-0.02062550358372721    14  8  5  1
-0.002272126686771586    14  8  5  3
-0.0182377900834839    14  8  7  2
-0.01093563066055628    14  8  8  7
0.005548644055916613    14  8  9  7
-0.01131527959430204    14  8  11  1
-0.003176456826152578    14  8  11  3
-0.001036276232634278    14  8  12  5
0.009122331829920862    14  8  12  11
0.008311616345375276    14  8  14  2
0.01489918238267418    14  8  14  8
-0.01174888144386416    14  9  5  1
0.01160519436133344    14  9  5  3
-0.01852970775551808    14  9  7  2
0.00551096797425946    14  9  8  7
-0.0007854058521920873    14  9  9  7
-0.003357211345539004    14  9  11  1
0.006673668561870837    14  9  11  3
-0.001390357431604423    14  9  12  5
0.01640286837932886    14  9  12  11
0.002396562359122548    14  9  14  2
0.001527543013008429    14  9  14  8
0.01568589855771628    14  9  14  9
-0.009220322496607078    14  10  6  5
-0.009380550430174456    14  10  7  4
-0.003732606423831611    14  10  10  7
-0.005087110401155351    14  10  11  6
0.002277072778964283    14  10  13  5
0.009994331506844624    14  10  13  11
0.00365013127039915    14  10  14  4
0.01002328225723778    14  10  14  10
-0.1234967453543733    14  11  2  1
0.0800492430993483    14  11  3  2
-0.1153268040963733    14  11  6  4
-0.1261419996956515    14  11  7  5
-0.04977130736665659    14  11  8  1
-0.1001240342397094    14  11  8  3
-0.002838423414231873    14  11  9  1
0.0628740081583839    14  11  9  3
-0.06602082196378606    14  11  10  6
-0.0785307863332303    14  11  11  7
0.04824736188559369    14  11  12  2
0.004646523716735444    14  11  12  8
0.1095354129239117    14  11  12  9
0.05052929136093691    14  11  13  4
0.1131045016405519    14  11  13  10
0.05370390504312638    14  11  14  5
0.141937690627192    14  11  14  11
0.02780287946149811    14  12  5  2
0.02564056349088576    14  12  7  1
-0.01722843500220804    14  12  7  3
0.002640694837524428    14  12  8  5
-3.158359405183503e-05    14  12  9  5
0.01513721817068317    14  12  11  2
0.005501394259062347    14  12  11  8
0.0153008707381209    14  12  11  9
2.751535532963099e-05    14  12  12  7
-0.009275469307578211    14  12  14  1
0.0005358947835474967    14  12  14  3
0.02645419151562922    14  12  14  12
0.01043512489763389    14  13  5  4
0.0112717878340717    14  13  7  6
0.001496628546712308    14  13  10  5
0.003307546964214729    14  13  11  4
0.01171961243331575    14  13  11  10
-0.001441410422507896    14  13  13  7
-0.002771323233548888    14  13  14  6
0.01182095064456455    14  13  14  13
0.3671255569280636    14  14  1  1
0.3549547152319985    14  14  2  2
0.01523461490405694    14  14  3  1
0.3464537898461243    14  14  3  3
0.3309569250697767    14  14  4  4
0.3405200856936351    14  14  5  5
0.3328290273743297    14  14  6  6
0.3473174751259034    14  14  7  7
0.03036973926067737    14  14  8  2
0.3483619222623396    14  14  8  8
0.03417226463289246    14  14  9  2
-0.0673439725497835    14  14  9  8
0.3052792738338288    14  14  9  9
0.0658517557556336    14  14  10  4
0.3253134740509742    14  14  10  10
0.07076981409333352    14  14  11  5
0.3604648583724414    14  14  11  11
-0.03359705782601106    14  14  12  1
0.0534523554638513    14  14  12  3
0.298486130958905    14  14  12  12
-0.07084578037594554    14  14  13  6