 &FCI NORB=26,NELEC=8,MS2=0,
  ORBSYM=1,5,3,2,1,7,6,5,1,2,3,1,6,7,5,4,1,5,3,2,8,5,1,7,6,5,
  ISYM=1,
 &END
0.6488008040333891    1  1  1  1
0.06200221344489965    2  1  2  1
0.4395274836065555    2  2  1  1
0.4457829354499768    2  2  2  2
0.08910276911729366    3  1  3  1
0.03524230541060042    3  2  3  2
0.5275259636961445    3  3  1  1
0.4154400631626041    3  3  2  2
0.4889292696615754    3  3  3  3
0.08910276911729351    4  1  4  1
0.03524230541060042    4  2  4  2
0.02006254809238578    4  3  4  3
0.527525963696144    4  4  1  1
0.415440063162604    4  4  2  2
0.4488041734768033    4  4  3  3
0.4889292696615747    4  4  4  4
0.1215576578041983    5  1  1  1
0.004986942719686703    5  1  2  2
0.06151247392504805    5  1  3  3
0.0615124739250479    5  1  4  4
0.06666619305102837    5  1  5  1
-0.08318135965886021    5  2  2  1
0.1479339148881799    5  2  5  2
-0.0007832924855777938    5  3  3  1
0.01729324636828995    5  3  5  3
-0.0007832924855778526    5  4  4  1
0.01729324636828994    5  4  5  4
0.4706738068493618    5  5  1  1
0.4371208022787329    5  5  2  2
0.4172248068853828    5  5  3  3
0.4172248068853824    5  5  4  4
0.03236797787072226    5  5  5  1
0.449555598095475    5  5  5  5
0.02987829092956853    6  1  3  2
0.02734767743404072    6  1  6  1
0.05643203767504013    6  2  3  1
-0.02041645050466473    6  2  5  3
0.0597454261526582    6  2  6  2
0.07473725188053622    6  3  2  1
-0.09561126100536178    6  3  5  2
0.1045159611666031    6  3  6  3
0.01070014514505813    6  4  6  4
-0.02475841137513726    6  5  3  2
-0.01762882589244361    6  5  6  1
0.02613215180073862    6  5  6  5
0.4264640695371371    6  6  1  1
0.3911175932141229    6  6  2  2
0.4143050407984369    6  6  3  3
0.3853668360699615    6  6  4  4
0.02139304721197308    6  6  5  1
0.3836867171305793    6  6  5  5
0.3827111686325305    6  6  6  6
0.02987829092956842    7  1  4  2
0.02734767743404052    7  1  7  1
0.05643203767503995    7  2  4  1
-0.02041645050466471    7  2  5  4
0.05974542615265786    7  2  7  2
0.0107001451450581    7  3  6  4
0.01070014514505807    7  3  7  3
0.07473725188053593    7  4  2  1
-0.09561126100536146    7  4  5  2
0.08311567087648652    7  4  6  3
0.1045159611666024    7  4  7  4
-0.0247584113751372    7  5  4  2
-0.01762882589244353    7  5  7  1
0.02613215180073849    7  5  7  5
0.0144691023642376    7  6  4  3
0.01477645481275658    7  6  7  6
0.4264640695371357    7  7  1  1
0.3911175932141217    7  7  2  2
0.3853668360699607    7  7  3  3
0.4143050407984358    7  7  4  4
0.02139304721197289    7  7  5  1
0.3836867171305783    7  7  5  5
0.3531582590070165    7  7  6  6
0.382711168632529    7  7  7  7
0.02610915745351898    8  1  2  1
-0.02381998913069373    8  1  5  2
0.03229830880760465    8  1  6  3
0.03229830880760428    8  1  7  4
0.01548878150273113    8  1  8  1
0.08206685776219617    8  2  1  1
0.05364597938302184    8  2  2  2
0.06924839049078536    8  2  3  3
0.0692483904907855    8  2  4  4
0.01486762447751652    8  2  5  1
0.04838142912805529    8  2  5  5
0.04935938929843468    8  2  6  6
0.04935938929843369    8  2  7  7
0.0296230107620907    8  2  8  2
0.01474047248486617    8  3  3  2
0.01382316177757755    8  3  6  1
-0.005832223604921652    8  3  6  5
0.00892879887624266    8  3  8  3
0.01474047248486612    8  4  4  2
0.01382316177757746    8  4  7  1
-0.005832223604921548    8  4  7  5
0.008928798876242662    8  4  8  4
0.006400839591537037    8  5  2  1
-0.01794828678704067    8  5  5  2
0.008224570565145469    8  5  6  3
0.00822457056514562    8  5  7  4
-0.003788455073291073    8  5  8  1
0.02492243545713597    8  5  8  5
0.02140254796482417    8  6  3  1
-0.0008559964427680267    8  6  5  3
0.01301914541552979    8  6  6  2
0.01192092932667812    8  6  8  6
0.02140254796482393    8  7  4  1
-0.0008559964427679605    8  7  5  4
0.01301914541552957    8  7  7  2
0.01192092932667809    8  7  8  7
0.2872338951492275    8  8  1  1
-1.509101003882574e-15    8  8  2  1
0.2965091945281493    8  8  2  2
0.2762909580002243    8  8  3  3
0.2762909580002251    8  8  4  4
-0.0001961973254817981    8  8  5  1
1.044303532538038e-15    8  8  5  2
0.3005635600251877    8  8  5  5
0.2731114425829769    8  8  6  6
-1.016547956922409e-15    8  8  7  4
0.2731114425829751    8  8  7  7
-5.109858391451338e-15    8  8  8  1
-0.0009800223151508944    8  8  8  2
1.410395238099493e-14    8  8  8  5
0.287105151547409    8  8  8  8
-0.06400389189509416    9  1  1  1
-0.009807273764160122    9  1  2  2
-0.02337362454845757    9  1  3  3
-0.02337362454845746    9  1  4  4
-0.03661150991511262    9  1  5  1
-0.03185674049094216    9  1  5  5
-0.01063225265507908    9  1  6  6
-0.0106322526550789    9  1  7  7
-0.002484580579385385    9  1  8  2
-0.009923256060473633    9  1  8  8
0.03156232710956294    9  1  9  1
0.0135309562726398    9  2  2  1
-0.01272805878482559    9  2  5  2
0.01613996004112188    9  2  6  3
0.01613996004112179    9  2  7  4
0.01042048800131042    9  2  8  1
-0.01639382565304308    9  2  8  5
0.01733911349267508    9  2  9  2
0.01938606938645349    9  3  3  1
-0.007188494057521188    9  3  5  3
0.01773511433779347    9  3  6  2
0.007571083023848599    9  3  8  6
0.01475896808564801    9  3  9  3
0.01938606938645351    9  4  4  1
-0.007188494057521188    9  4  5  4
0.01773511433779344    9  4  7  2
0.007571083023848589    9  4  8  7
0.01475896808564803    9  4  9  4
-0.1253149826189068    9  5  1  1
-0.0620493177283097    9  5  2  2
-0.08678416285593922    9  5  3  3
-0.08678416285593912    9  5  4  4
-0.03899216367411836    9  5  5  1
-0.07148726022797354    9  5  5  5
-0.05668513641334225    9  5  6  6
-0.05668513641334171    9  5  7  7
-0.03477647478529274    9  5  8  2
-0.000722226001881601    9  5  8  8
0.02111847199895727    9  5  9  1
0.05416850270272007    9  5  9  5
0.00634305308545925    9  6  3  2
0.004747169764502159    9  6  6  1
-0.002139795092591235    9  6  6  5
0.00529732018946988    9  6  8  3
0.007078456698004749    9  6  9  6
0.006343053085459189    9  7  4  2
0.0047471697645021    9  7  7  1
-0.002139795092591124    9  7  7  5
0.005297320189469878    9  7  8  4
0.007078456698004771    9  7  9  7
0.04165834937369726    9  8  2  1
-0.08034729562651587    9  8  5  2
0.0505736068460664    9  8  6  3
0.0505736068460669    9  8  7  4
0.005293073006325522    9  8  8  1
0.03629256248000918    9  8  8  5
-7.919012667834124e-15    9  8  8  8
-0.01178520887891052    9  8  9  2
0.08196771117129044    9  8  9  8
0.395050117747931    9  9  1  1
0.3418781603592118    9  9  2  2
0.3542192430393398    9  9  3  3
0.3542192430393395    9  9  4  4
0.03509069025564292    9  9  5  1
0.3544861544881308    9  9  5  5
0.3216352344244399    9  9  6  6
0.3216352344244393    9  9  7  7
0.02706837558070429    9  9  8  2
0.2782297983172339    9  9  8  8
-0.02290440953444874    9  9  9  1
-0.04363741756769084    9  9  9  5
0.3172083059761012    9  9  9  9
0.03390054736491838    10  1  4  1
0.007002934158565656    10  1  5  4
0.01423897160751711    10  1  7  2
0.01006647924681014    10  1  8  7
-0.001025875419384995    10  1  9  4
0.02430264319292193    10  1  10  1
0.007053661129360879    10  2  4  2
0.006588279085833535    10  2  7  1
0.0004689376023368232    10  2  7  5
0.006281570329212032    10  2  8  4
0.004122108924900654    10  2  9  7
0.009899143986010283    10  2  10  2
0.003491174801158348    10  3  4  3
0.0008227296608544681    10  3  7  6
0.006802481768509014    10  3  10  3
0.1314691411141123    10  4  1  1
0.07425210532253819    10  4  2  2
0.09024720959696318    10  4  3  3
0.09722955919927967    10  4  4  4
0.03541899330815436    10  4  5  1
0.08182002153613149    10  4  5  5
0.06310493239229686    10  4  6  6
0.06475039171400503    10  4  7  7
0.02841476190296558    10  4  8  2
0.02629758433385623    10  4  8  8
-0.02360759511571705    10  4  9  1
-0.04247379501662486    10  4  9  5
0.05040915942644682    10  4  9  9
0.06359703976330773    10  4  10  4
0.01994335433757825    10  5  4  1
0.002324178935816466    10  5  5  4
0.01144758005343854    10  5  7  2
-0.0004755415866549165    10  5  8  7
0.0007516882581585179    10  5  9  4
0.005596664686192713    10  5  10  1
0.01126185353918518    10  5  10  5
0.0009721519879545531    10  6  6  4
0.0009721519879545306    10  6  7  3
0.005200400693892841    10  6  10  6
0.01534257612711922    10  7  2  1
-0.006367402868973478    10  7  5  2
0.01530804022226499    10  7  6  3
0.01725234419817369    10  7  7  4
0.01369450228425693    10  7  8  1
-0.0111399469224119    10  7  8  5
-1.711955230354612e-15    10  7  8  8
0.01274421298029967    10  7  9  2
-0.01149132054934418    10  7  9  8
0.03292607654223    10  7  10  7
0.011255565666289    10  8  4  2
0.00993125501736276    10  8  7  1
-0.008540640472186303    10  8  7  5
0.003305942594094986    10  8  8  4
-0.001834822040775689    10  8  9  7
0.00215509986492092    10  8  10  2
0.007139595516839871    10  8  10  8
-0.01732142123797942    10  9  4  1
-0.005275203231271394    10  9  5  4
-0.00366941246811122    10  9  7  2
-0.005780657698162563    10  9  8  7
-0.00639359977990503    10  9  9  4
-0.003789265299649648    10  9  10  1
-0.005696899407821031    10  9  10  5
0.01327343960412413    10  9  10  9
0.4204916581707532    10  10  1  1
0.347804755498642    10  10  2  2
0.3695076013014621    10  10  3  3
0.3959249587598485    10  10  4  4
0.0407308829015876    10  10  5  1
0.3499651306787785    10  10  5  5
0.3281189409761401    10  10  6  6
0.3505263824447593    10  10  7  7
0.04651685989997251    10  10  8  2
0.2509982087398558    10  10  8  8
-0.01675661178701816    10  10  9  1
-0.06042311533376214    10  10  9  5
0.3098196311214269    10  10  9  9
0.05829791295953898    10  10  10  4
0.3493381349633031    10  10  10  10
0.03390054736491827    11  1  3  1
0.007002934158565671    11  1  5  3
0.0142389716075171    11  1  6  2
0.01006647924681015    11  1  8  6
-0.001025875419385042    11  1  9  3
0.02430264319292181    11  1  11  1
0.007053661129360846    11  2  3  2
0.006588279085833552    11  2  6  1
0.0004689376023368174    11  2  6  5
0.00628157032921201    11  2  8  3
0.004122108924900648    11  2  9  6
0.009899143986010266    11  2  11  2
0.1314691411141121    11  3  1  1
0.07425210532253794    11  3  2  2
0.09722955919927957    11  3  3  3
0.09024720959696272    11  3  4  4
0.03541899330815431    11  3  5  1
0.08182002153613128    11  3  5  5
0.06475039171400561    11  3  6  6
0.06310493239229602    11  3  7  7
0.02841476190296553    11  3  8  2
0.02629758433385615    11  3  8  8
-0.02360759511571704    11  3  9  1
-0.04247379501662481    11  3  9  5
0.05040915942644665    11  3  9  9
0.04999207622628962    11  3  10  4
0.05976460887050059    11  3  10  10
0.06359703976330761    11  3  11  3
0.003491174801158287    11  4  4  3
0.0008227296608544263    11  4  7  6
0.006802481768509011    11  4  10  3
0.006802481768509008    11  4  11  4
0.01994335433757827    11  5  3  1
0.002324178935816455    11  5  5  3
0.01144758005343854    11  5  6  2
-0.000475541586654878    11  5  8  6
0.0007516882581585225    11  5  9  3
0.005596664686192659    11  5  11  1
0.01126185353918518    11  5  11  5
0.01534257612711948    11  6  2  1
-0.006367402868973834    11  6  5  2
0.01725234419817434    11  6  6  3
0.01530804022226511    11  6  7  4
0.01369450228425704    11  6  8  1
-0.01113994692241184    11  6  8  5
-1.671189228669157e-15    11  6  8  8
0.01274421298029971    11  6  9  2
-0.01149132054934395    11  6  9  8
0.02252527515444443    11  6  10  7
0.03292607654223002    11  6  11  6
0.0009721519879544849    11  7  6  4
0.0009721519879544624    11  7  7  3
0.005200400693892844    11  7  10  6
0.005200400693892846    11  7  11  7
0.01125556566628893    11  8  3  2
0.009931255017362813    11  8  6  1
-0.008540640472186303    11  8  6  5
0.003305942594094974    11  8  8  3
-0.00183482204077563    11  8  9  6
0.002155099864920887    11  8  11  2
0.007139595516840132    11  8  11  8
-0.01732142123797951    11  9  3  1
-0.005275203231271387    11  9  5  3
-0.003669412468111246    11  9  6  2
-0.005780657698162565    11  9  8  6
-0.006393599779905048    11  9  9  3
-0.003789265299649613    11  9  11  1
-0.005696899407821019    11  9  11  5
0.01327343960412416    11  9  11  9
0.01320867872919333    11  10  4  3
0.01120372073430998    11  10  7  6
-0.0007333479554808794    11  10  10  3
-0.0007333479554809217    11  10  11  4
0.0139076416405064    11  10  11  10
0.420491658170753    11  11  1  1
0.3478047554986419    11  11  2  2
0.3959249587598486    11  11  3  3
0.3695076013014616    11  11  4  4
0.04073088290158747    11  11  5  1
0.3499651306787783    11  11  5  5
0.3505263824447599    11  11  6  6
0.3281189409761394    11  11  7  7
0.04651685989997243    11  11  8  2
0.2509982087398559    11  11  8  8
-0.01675661178701808    11  11  9  1
-0.06042311533376201    11  11  9  5
0.309819631121427    11  11  9  9
0.05976460887050063    11  11  10  4
0.32152285168229    11  11  10  10
0.05829791295953867    11  11  11  3
0.349338134963303    11  11  11  11
0.07149119787268993    12  1  1  1
0.050594975041687    12  1  2  2
0.04656670248522277    12  1  3  3
0.04656670248522268    12  1  4  4
0.01733486078894699    12  1  5  1
0.05730793847271024    12  1  5  5
0.03626638467687358    12  1  6  6
0.03626638467687319    12  1  7  7
0.01595014822056361    12  1  8  2
0.01696192061086571    12  1  8  8
-0.01845813106981335    12  1  9  1
-0.02727276908798872    12  1  9  5
0.02926646940336782    12  1  9  9
0.03387191385017603    12  1  10  4
0.0306773108079358    12  1  10  10
0.033871913850176    12  1  11  3
0.03067731080793567    12  1  11  11
0.02621164109209331    12  1  12  1
0.04158685532921435    12  2  2  1
-0.06480206430057905    12  2  5  2
0.04402934655312501    12  2  6  3
0.04402934655312463    12  2  7  4
0.01872197513716159    12  2  8  1
-0.008837662689240066    12  2  8  5
2.373318555570769e-15    12  2  8  8
0.02020431468817064    12  2  9  2
0.01511222655747902    12  2  9  8
0.02476390696862994    12  2  10  7
0.02476390696863007    12  2  11  6
0.05223573842460111    12  2  12  2
-0.008267987407047371    12  3  3  1
0.0001974875749335569    12  3  5  3
-0.004143351632265617    12  3  6  2
0.00228395450407806    12  3  8  6
-0.008993920536715197    12  3  9  3
0.009477245108476882    12  3  11  1
-0.007812838911108828    12  3  11  5
0.009100654755186675    12  3  11  9
0.02029544968792338    12  3  12  3
-0.008267987407047452    12  4  4  1
0.0001974875749335838    12  4  5  4
-0.004143351632265749    12  4  7  2
0.002283954504078054    12  4  8  7
-0.008993920536715225    12  4  9  4
0.009477245108476856    12  4  10  1
-0.007812838911108844    12  4  10  5
0.009100654755186663    12  4  10  9
0.02029544968792342    12  4  12  4
-0.03407079857438514    12  5  1  1
-0.06858623779788761    12  5  2  2
-0.03978935247208656    12  5  3  3
-0.03978935247208646    12  5  4  4
0.01469541494421029    12  5  5  1
-0.06023044314751731    12  5  5  5
-0.03914545275538318    12  5  6  6
-0.03914545275538283    12  5  7  7
-0.01894811108892507    12  5  8  2
-0.01443107235411502    12  5  8  8
-0.006138202785796278    12  5  9  1
0.01950383037890126    12  5  9  5
-0.02293308957039829    12  5  9  9
-0.02022629754733796    12  5  10  4
-0.02540582771330558    12  5  10  10
-0.02022629754733791    12  5  11  3
-0.02540582771330561    12  5  11  11
-0.0175319981106731    12  5  12  1
0.03848218407658072    12  5  12  5
0.004053798794617565    12  6  3  2
0.002650954972065826    12  6  6  1
0.0003550211774569967    12  6  6  5
0.004159409108898819    12  6  8  3
0.003393929014711168    12  6  9  6
0.01054187557265255    12  6  11  2
0.001185796377004228    12  6  11  8
0.01408006495525672    12  6  12  6
0.00405379879461737    12  7  4  2
0.002650954972065612    12  7  7  1
0.0003550211774572176    12  7  7  5
0.004159409108898761    12  7  8  4
0.003393929014711138    12  7  9  7
0.01054187557265254    12  7  10  2
0.001185796377004158    12  7  10  8
0.01408006495525672    12  7  12  7
0.03179775376937569    12  8  2  1
-0.05404780803213327    12  8  5  2
0.03711304173566448    12  8  6  3
0.03711304173566393    12  8  7  4
0.008722140694493593    12  8  8  1
-1.494030593685025e-15    12  8  8  2
0.01496945677383679    12  8  8  5
-0.0004389204881795367    12  8  9  2
0.0418069047108398    12  8  9  8
1.630640067418199e-15    12  8  9  9
0.003523654963640973    12  8  10  7
0.003523654963640553    12  8  11  6
0.02203049692458159    12  8  12  2
0.02719197667113988    12  8  12  8
-0.03607399818108104    12  9  1  1
0.01667685841907213    12  9  2  2
-0.02357540932480706    12  9  3  3
-0.02357540932480702    12  9  4  4
-0.02375938659475694    12  9  5  1
0.01290988080829335    12  9  5  5
-0.003097119551662631    12  9  6  6
-0.00309711955166269    12  9  7  7
-0.007821908984224375    12  9  8  2
0.01947454569327762    12  9  8  8
0.001357512502162461    12  9  9  1
0.01073765322981815    12  9  9  5
-0.004173827412639977    12  9  9  9
0.002979340087142532    12  9  10  4
-0.0185361820841357    12  9  10  10
0.00297934008714257    12  9  11  3
-0.01853618208413569    12  9  11  11
0.008985880345444128    12  9  12  1
-0.01578774336192975    12  9  12  5
-1.068210190441343e-15    12  9  12  8
0.03030436832820998    12  9  12  9
0.04645398334197958    12  10  4  1
-0.01131739371484405    12  10  5  4
0.04154624111147231    12  10  7  2
0.008652591392526457    12  10  8  7
0.01788846683179647    12  10  9  4
0.007004975694117502    12  10  10  1
0.0129620312160109    12  10  10  5
-0.01203120493046243    12  10  10  9
-0.01432832361106998    12  10  12  4
0.04317554377499497    12  10  12  10
0.04645398334197964    12  11  3  1
-0.01131739371484403    12  11  5  3
0.04154624111147239    12  11  6  2
0.008652591392526559    12  11  8  6
0.01788846683179648    12  11  9  3
0.007004975694117401    12  11  11  1
0.01296203121601095    12  11  11  5
-0.01203120493046248    12  11  11  9
-0.01432832361106997    12  11  12  3
0.04317554377499505    12  11  12  11
0.409716371733031    12  12  1  1
0.3838352061121822    12  12  2  2
0.3857316039689919    12  12  3  3
0.3857316039689918    12  12  4  4
0.0179737729938378    12  12  5  1
0.3798325597996787    12  12  5  5
0.3528321055530967    12  12  6  6
0.3528321055530961    12  12  7  7
0.04794615716821997    12  12  8  2
0.2668694972168413    12  12  8  8
-0.005960322345275529    12  12  9  1
-0.05826932672761966    12  12  9  5
-1.438627862671016e-15    12  12  9  8
0.3205289725315625    12  12  9  9
0.054544521448071    12  12  10  4
0.3344166821590301    12  12  10  10
0.0545445214480708    12  12  11  3
0.3344166821590299    12  12  11  11
0.03265178040658472    12  12  12  1
-0.04747060157137666    12  12  12  5
-0.004484231649273564    12  12  12  9
0.3576248789667027    12  12  12  12
-0.01897971815747666    13  1  4  2
-0.01869940773915848    13  1  7  1
0.006318126486324922    13  1  7  5
-0.01131603665912769    13  1  8  4
-0.003718863399910369    13  1  9  7
-0.0106294962059481    13  1  10  2
-0.007049896688495397    13  1  10  8
-0.009022131130823603    13  1  12  7
0.01838665909874145    13  1  13  1
-0.02531181989785532    13  2  4  1
0.005354706306486863    13  2  5  4
-0.02120453528430929    13  2  7  2
-0.01290617559057997    13  2  8  7
-0.006531657182126482    13  2  9  4
-0.01566446435351225    13  2  10  1
0.002893417972792258    13  2  10  5
0.0003464171162064038    13  2  10  9
-0.01127550654713569    13  2  12  4
-0.009231785539951546    13  2  12  10
0.02159240870772128    13  2  13  2
-0.005400807977471014    13  3  6  4
-0.005400807977470981    13  3  7  3
-0.004977221108368373    13  3  10  6
-0.004977221108368344    13  3  11  7
0.006696860037499055    13  3  13  3
-0.04735669645708632    13  4  2  1
0.05010124208729107    13  4  5  2
-0.0512210479235131    13  4  6  3
-0.06202266387845469    13  4  7  4
-0.02633450083574779    13  4  8  1
0.005415694911881815    13  4  8  5
1.914267355740407e-15    13  4  8  8
-0.01804830973384438    13  4  9  2
-0.01380606835578631    13  4  9  8
-0.03670312322197982    13  4  10  7
-0.02674868100524332    13  4  11  6
-0.04236921477712155    13  4  12  2
-0.0207720284182094    13  4  12  8
0.06026935654329862    13  4  13  4
0.00541229244847421    13  5  4  2
0.001894765905691422    13  5  7  1
-0.004359706306226439    13  5  7  5
0.003552645588317027    13  5  8  4
0.006093876126941024    13  5  9  7
0.006563410386457706    13  5  10  2
-0.0008658679073451369    13  5  10  8
0.009258888843460687    13  5  12  7
-0.003687814813778932    13  5  13  1
0.01037579611809353    13  5  13  5
-0.005069268197987519    13  6  4  3
-0.002385791477985891    13  6  7  6
-0.006010524793312128    13  6  10  3
-0.006010524793312121    13  6  11  4
-0.0003948292436127925    13  6  11  10
0.007399119739469623    13  6  13  6
-0.1344737381801689    13  7  1  1
-0.09515747522858688    13  7  2  2
-0.1026502533782771    13  7  3  3
-0.1127887897742519    13  7  4  4
-0.02440981750097553    13  7  5  1
-0.09411575267503118    13  7  5  5
-0.0765067190730595    13  7  6  6
-0.08127830202903023    13  7  7  7
-0.03590774748344518    13  7  8  2
-0.02783923364606541    13  7  8  8
0.01412464922825138    13  7  9  1
0.0461128569066623    13  7  9  5
-0.05682532116586414    13  7  9  9
-0.06219683923242163    13  7  10  4
-0.07013087782889801    13  7  10  10
-0.05017578964579725    13  7  11  3
-0.06934121934167246    13  7  11  11
-0.03365722917077202    13  7  12  1
0.03079236870340038    13  7  12  5
-0.001791493738478143    13  7  12  9
-0.07227348033065409    13  7  12  12
0.07148855031571512    13  7  13  7
-0.0256641482422179    13  8  4  1
0.007643473795701373    13  8  5  4
-0.02613336528529547    13  8  7  2
-0.001912172141013659    13  8  8  7
-0.00461943764351941    13  8  9  4
-0.008654503948606658    13  8  10  1
-0.007016916061597617    13  8  10  5
-0.001387085527800625    13  8  10  9
0.0003829377682335101    13  8  12  4
-0.01907939371585686    13  8  12  10
0.008109742152237837    13  8  13  2
0.01692198256381167    13  8  13  8
-0.009601990336897549    13  9  4  2
-0.005937697199066657    13  9  7  1
0.01180525806633218    13  9  7  5
-0.0008255155073485417    13  9  8  4
0.0009911638896883549    13  9  9  7
0.0001271894386180446    13  9  10  2
-0.00590425986987089    13  9  10  8
5.29381169473747e-05    13  9  12  7
0.001538275786237644    13  9  13  1
-0.001599653337615154    13  9  13  5
0.008890400580758771    13  9  13  9
-0.06284195019297661    13  10  2  1
0.08041479218287316    13  10  5  2
-0.0722653953515125    13  10  6  3
-0.08783688695533243    13  10  7  4
-0.02717057832015078    13  10  8  1
-0.01091493931700053    13  10  8  5
1.331400267812199e-15    13  10  8  8
-0.01130760274087195    13  10  9  2
-0.04746415557852774    13  10  9  8
-0.01456239593569379    13  10  10  7
-0.01402438872667666    13  10  11  6
-0.03773781648529452    13  10  12  2
-0.03587822778501296    13  10  12  8
0.05323218590163798    13  10  13  4
0.08505817791791141    13  10  13  10
-0.007785745801910103    13  11  6  4
-0.007785745801910085    13  11  7  3
-0.0002690036045087129    13  11  10  6
-0.0002690036045086487    13  11  11  7
0.003758884902911553    13  11  13  3
0.008071718361967333    13  11  13  11
-0.02533078836598552    13  12  4  2
-0.02069077277188569    13  12  7  1
0.02050467900004355    13  12  7  5
-0.008772640766487337    13  12  8  4
-0.002589749999420079    13  12  9  7
-0.003223275410095243    13  12  10  2
-0.01009348315856068    13  12  10  8
-0.0006656717085903406    13  12  12  7
0.0117316115243579    13  12  13  1
-0.002279356420703647    13  12  13  5
0.009675838937559796    13  12  13  9
0.02353649187606975    13  12  13  12
0.4272947961169711    13  13  1  1
0.3771586509485452    13  13  2  2
0.380226054543269    13  13  3  3
0.4043798110186099    13  13  4  4
0.031394851895289    13  13  5  1
0.3750047908815569    13  13  5  5
0.3440074491822971    13  13  6  6
0.3679065858225774    13  13  7  7
0.05054327798576942    13  13  8  2
0.2667493926011572    13  13  8  8
-0.01884640062430219    13  13  9  1
-0.06387310804628069    13  13  9  5
-1.111957748101133e-15    13  13  9  8
0.3168505947896009    13  13  9  9
0.07650893454896095    13  13  10  4
0.3496168943679389    13  13  10  10
0.07205089592178501    13  13  11  3
0.3270471226631708    13  13  11  11
0.04355601908231418    13  13  12  1
-0.04003129790343983    13  13  12  5
0.0003034123079867907    13  13  12  9
0.3449205345844695    13  13  12  12
-0.08805581540189493    13  13  13  7
0.3716924008227115    13  13  13  13
-0.01897971815747647    14  1  3  2
-0.01869940773915841    14  1  6  1
0.006318126486324837    14  1  6  5
-0.01131603665912761    14  1  8  3
-0.003718863399910351    14  1  9  6
-0.01062949620594803    14  1  11  2
-0.007049896688495358    14  1  11  8
-0.009022131130823655    14  1  12  6
0.01838665909874121    14  1  14  1
-0.02531181989785496    14  2  3  1
0.005354706306486708    14  2  5  3
-0.02120453528430901    14  2  6  2
-0.01290617559057993    14  2  8  6
-0.006531657182126361    14  2  9  3
-0.01566446435351211    14  2  11  1
0.002893417972792333    14  2  11  5
0.000346417116206407    14  2  11  9
-0.01127550654713572    14  2  12  3
-0.009231785539951244    14  2  12  11
0.02159240870772098    14  2  14  2
-0.04735669645708591    14  3  2  1
0.05010124208729053    14  3  5  2
-0.06202266387845455    14  3  6  3
-0.05122104792351236    14  3  7  4
-0.02633450083574761    14  3  8  1
0.005415694911881848    14  3  8  5
1.892474892073448e-15    14  3  8  8
-0.01804830973384429    14  3  9  2
-0.01380606835578604    14  3  9  8
-0.02674868100524302    14  3  10  7
-0.0367031232219799    14  3  11  6
-0.04236921477712129    14  3  12  2
-0.0207720284182092    14  3  12  8
0.0468756364683003    14  3  13  4
0.04571441609581451    14  3  13  10
0.06026935654329792    14  3  14  3
-0.005400807977470933    14  4  6  4
-0.005400807977470899    14  4  7  3
-0.004977221108368365    14  4  10  6
-0.004977221108368336    14  4  11  7
0.006696860037499014    14  4  13  3
0.003758884902911492    14  4  13  11
0.006696860037498971    14  4  14  4
0.005412292448474017    14  5  3  2
0.001894765905691324    14  5  6  1
-0.004359706306226323    14  5  6  5
0.003552645588316975    14  5  8  3
0.006093876126941015    14  5  9  6
0.006563410386457699    14  5  11  2
-0.0008658679073451189    14  5  11  8
0.00925888884346069    14  5  12  6
-0.00368781481377885    14  5  14  1
0.01037579611809345    14  5  14  5
-0.1344737381801689    14  6  1  1
-0.09515747522858668    14  6  2  2
-0.1127887897742521    14  6  3  3
-0.1026502533782767    14  6  4  4
-0.02440981750097554    14  6  5  1
-0.09411575267503097    14  6  5  5
-0.08127830202903091    14  6  6  6
-0.0765067190730587    14  6  7  7
-0.03590774748344516    14  6  8  2
-0.02783923364606541    14  6  8  8
0.0141246492282514    14  6  9  1
0.0461128569066623    14  6  9  5
-0.05682532116586414    14  6  9  9
-0.05017578964579735    14  6  10  4
-0.06934121934167238    14  6  10  10
-0.06219683923242149    14  6  11  3
-0.07013087782889785    14  6  11  11
-0.03365722917077203    14  6  12  1
0.03079236870340035    14  6  12  5
-0.001791493738478165    14  6  12  9
-0.07227348033065407    14  6  12  12
0.05669031083677572    14  6  13  7
-0.08269348304953685    14  6  13  13
0.07148855031571506    14  6  14  6
-0.005069268197987354    14  7  4  3
-0.002385791477985712    14  7  7  6
-0.006010524793312112    14  7  10  3
-0.006010524793312106    14  7  11  4
-0.0003948292436126479    14  7  11  10
0.007399119739469593    14  7  13  6
0.007399119739469573    14  7  14  7
-0.02566414824221793    14  8  3  1
0.007643473795701282    14  8  5  3
-0.02613336528529538    14  8  6  2
-0.001912172141013676    14  8  8  6
-0.004619437643519387    14  8  9  3
-0.008654503948606543    14  8  11  1
-0.007016916061597479    14  8  11  5
-0.001387085527800566    14  8  11  9
0.0003829377682334647    14  8  12  3
-0.0190793937158569    14  8  12  11
0.008109742152237441    14  8  14  2
0.01692198256381092    14  8  14  8
-0.009601990336897534    14  9  3  2
-0.005937697199066631    14  9  6  1
0.01180525806633217    14  9  6  5
-0.0008255155073485135    14  9  8  3
0.0009911638896883386    14  9  9  6
0.0001271894386180938    14  9  11  2
-0.005904259869870778    14  9  11  8
5.293811694732018e-05    14  9  12  6
0.001538275786237583    14  9  14  1
-0.001599653337615029    14  9  14  5
0.008890400580758804    14  9  14  9
-0.007785745801910101    14  10  6  4
-0.007785745801910083    14  10  7  3
-0.0002690036045086903    14  10  10  6
-0.0002690036045086253    14  10  11  7
0.003758884902911533    14  10  13  3
0.008071718361967333    14  10  13  11
0.003758884902911473    14  10  14  4
0.008071718361967326    14  10  14  10
-0.06284195019297643    14  11  2  1
0.08041479218287303    14  11  5  2
-0.08783688695533254    14  11  6  3
-0.07226539535151207    14  11  7  4
-0.02717057832015065    14  11  8  1
-0.0109149393170006    14  11  8  5
1.316438277831899e-15    14  11  8  8
-0.01130760274087183    14  11  9  2
-0.04746415557852778    14  11  9  8
-0.01402438872667621    14  11  10  7
-0.01456239593569398    14  11  11  6
-0.03773781648529429    14  11  12  2
-0.0358782277850129    14  11  12  8
0.0457144160958146    14  11  13  4
0.06891474119397673    14  11  13  10
0.05323218590163714    14  11  14  3
0.08505817791791091    14  11  14  11
-0.02533078836598548    14  12  3  2
-0.02069077277188575    14  12  6  1
0.02050467900004357    14  12  6  5
-0.008772640766487323    14  12  8  3
-0.002589749999420112    14  12  9  6
-0.003223275410095127    14  12  11  2
-0.01009348315856055    14  12  11  8
-0.0006656717085904342    14  12  12  6
0.01173161152435772    14  12  14  1
-0.002279356420703438    14  12  14  5
0.00967583893755981    14  12  14  9
0.02353649187606969    14  12  14  12
0.01207687823767049    14  13  4  3
0.0119495683201405    14  13  7  6