 &FCI NORB=26,NELEC=8,MS2=0,
  ORBSYM=1,3,2,5,1,7,6,5,1,2,3,1,6,7,5,4,1,5,3,2,8,5,1,7,6,5,
  ISYM=1,
 &END
0.7016640963354592    1  1  1  1
0.09872243741384909    2  1  2  1
0.5656589069388389    2  2  1  1
0.5221450211035602    2  2  2  2
0.09872243741384905    3  1  3  1
0.02221526623602737    3  2  3  2
0.5656589069388391    3  3  1  1
0.4777144886315055    3  3  2  2
0.5221450211035604    3  3  3  3
0.04848462661211772    4  1  4  1
0.03259425538770168    4  2  4  2
0.03259425538770171    4  3  4  3
0.4485359243920722    4  4  1  1
0.4258417189100801    4  4  2  2
0.4258417189100802    4  4  3  3
0.4509527559747418    4  4  4  4
0.1313572439552882    5  1  1  1
0.06749022229833182    5  1  2  2
0.06749022229833181    5  1  3  3
0.008444618840215662    5  1  4  4
0.06431916261963609    5  1  5  1
-0.001815547110435584    5  2  2  1
0.01786003373908914    5  2  5  2
-0.001815547110435621    5  3  3  1
0.01786003373908916    5  3  5  3
-0.07585858625521905    5  4  4  1
0.1553101373447199    5  4  5  4
0.4851146605069469    5  5  1  1
0.4315350964531557    5  5  2  2
0.4315350964531559    5  5  3  3
0.4434975045747011    5  5  4  4
0.03617095232888101    5  5  5  1
0.4551362279861132    5  5  5  5
0.02566771557003148    6  1  4  2
0.02225797695336811    6  1  6  1
0.0611523120256867    6  2  4  1
-0.09214925813991764    6  2  5  4
0.09013800551550502    6  2  6  2
0.009637468649322405    6  3  6  3
0.05457467199826687    6  4  2  1
-0.02203251078817046    6  4  5  2
0.05687595008156173    6  4  6  4
-0.02504409015863292    6  5  4  2
-0.01692219378647595    6  5  6  1
0.02765956397494621    6  5  6  5
0.4206495669550772    6  6  1  1
0.4112569184673674    6  6  2  2
0.383254791105114    6  6  3  3
0.3832492332237069    6  6  4  4
0.01986474360100286    6  6  5  1
0.3779629986757513    6  6  5  5
0.3676545747764204    6  6  6  6
0.02566771557003162    7  1  4  3
0.02225797695336832    7  1  7  1
0.009637468649322436    7  2  6  3
0.009637468649322467    7  2  7  2
0.06115231202568697    7  3  4  1
-0.09214925813991802    7  3  5  4
0.07086306821686057    7  3  6  2
0.09013800551550584    7  3  7  3
0.05457467199826704    7  4  3  1
-0.02203251078817051    7  4  5  3
0.05687595008156196    7  4  7  4
-0.02504409015863296    7  5  4  3
-0.016922193786476    7  5  7  1
0.02765956397494624    7  5  7  5
0.01400106368112666    7  6  3  2
0.01438668423686741    7  6  7  6
0.4206495669550791    7  7  1  1
0.3832547911051154    7  7  2  2
0.4112569184673689    7  7  3  3
0.3832492332237079    7  7  4  4
0.01986474360100319    7  7  5  1
0.3779629986757523    7  7  5  5
0.3388812063026866    7  7  6  6
0.367654574776422    7  7  7  7
0.02021454051954832    8  1  4  1
-0.0236297237293855    8  1  5  4
0.02581308007627923    8  1  6  2
0.02581308007627939    8  1  7  3
0.01103533607778262    8  1  8  1
0.01376476836483959    8  2  4  2
0.01161954301276362    8  2  6  1
-0.006936212410896135    8  2  6  5
0.00771713789304479    8  2  8  2
0.01376476836483962    8  3  4  3
0.0116195430127637    8  3  7  1
-0.006936212410896264    8  3  7  5
0.007717137893044798    8  3  8  3
0.08620735244606662    8  4  1  1
0.0745693677229729    8  4  2  2
0.07456936772297219    8  4  3  3
0.0602785657554458    8  4  4  4
0.01238204627796269    8  4  5  1
0.05582623843314145    8  4  5  5
0.04807393120708724    8  4  6  6
0.04807393120708679    8  4  7  7
-1.184270644874127e-15    8  4  8  1
0.03164410134344475    8  4  8  4
-0.002019091533091871    8  5  4  1
-0.004756504378246849    8  5  5  4
-0.001407065772941003    8  5  6  2
-0.001407065772941066    8  5  7  3
-0.006368241954776123    8  5  8  1
-4.129509234562789e-15    8  5  8  4
0.0236609642845738    8  5  8  5
0.01854986729993292    8  6  2  1
-0.001913257557453512    8  6  5  2
0.009795054029214946    8  6  6  4
0.01129504831947985    8  6  8  6
0.01854986729993317    8  7  3  1
-0.00191325755745357    8  7  5  3
0.009795054029215308    8  7  7  4
0.01129504831947989    8  7  8  7
0.2837344345295787    8  8  1  1
0.2754928506352435    8  8  2  2
0.275492850635239    8  8  3  3
-1.077642749341967e-15    8  8  4  1
0.2973969349411008    8  8  4  4
-0.0008203321192599867    8  8  5  1
6.693105271404765e-15    8  8  5  4
0.299807065847663    8  8  5  5
4.638325314110237e-15    8  8  6  2
0.2693277986430756    8  8  6  6
-4.725169908126325e-15    8  8  7  3
0.2693277986430602    8  8  7  7
3.090492034648566e-15    8  8  8  1
7.808975168605253e-05    8  8  8  4
-3.567122725672833e-14    8  8  8  5
0.2879705668977298    8  8  8  8
-0.07068878699394684    9  1  1  1
-0.02772834230138563    9  1  2  2
-0.02772834230138556    9  1  3  3
-0.01199067509693668    9  1  4  4
-0.03702423143403154    9  1  5  1
-0.03311768356136238    9  1  5  5
-0.0103775987211042    9  1  6  6
-0.01037759872110422    9  1  7  7
-0.002802776225407396    9  1  8  4
-0.008989016014713283    9  1  8  8
0.03084345189481895    9  1  9  1
0.01916401461144884    9  2  2  1
-0.008718954950517934    9  2  5  2
0.01731363571241645    9  2  6  4
0.006668591310100097    9  2  8  6
0.01477262325180986    9  2  9  2
0.01916401461144885    9  3  3  1
-0.008718954950517941    9  3  5  3
0.0173136357124165    9  3  7  4
0.006668591310100132    9  3  8  7
0.01477262325180987    9  3  9  3
0.009932046477855722    9  4  4  1
-0.008519641111075138    9  4  5  4
0.01235503309858193    9  4  6  2
0.01235503309858203    9  4  7  3
0.008778617758867407    9  4  8  1
-0.01863734476229183    9  4  8  5
0.01725428603233331    9  4  9  4
-0.1282082829903977    9  5  1  1
-0.0899095329623313    9  5  2  2
-0.08990953296233131    9  5  3  3
-0.05811104606399237    9  5  4  4
-0.03818163878620748    9  5  5  1
-0.06779949837727242    9  5  5  5
-0.04940611761652182    9  5  6  6
-0.04940611761652238    9  5  7  7
-0.03463745258519893    9  5  8  4
0.002412090949632904    9  5  8  8
0.0200741963486599    9  5  9  1
0.05070562341363565    9  5  9  5
0.005166998536598864    9  6  4  2
0.00360450165655072    9  6  6  1
-0.0007038043757109132    9  6  6  5
0.004844084963686789    9  6  8  2
0.007191421222852611    9  6  9  6
0.005166998536598921    9  7  4  3
0.003604501656550767    9  7  7  1
-0.0007038043757109866    9  7  7  5
0.0048440849636868    9  7  8  3
0.007191421222852591    9  7  9  7
0.03802412102572011    9  8  4  1
-0.08422061879339164    9  8  5  4
0.04869655158607346    9  8  6  2
0.04869655158607374    9  8  7  3
0.005849547431332522    9  8  8  1
2.073428234661279e-15    9  8  8  4
0.03071319764197195    9  8  8  5
1.184122244701769e-14    9  8  8  8
-0.01534961439455359    9  8  9  4
0.08628849956587434    9  8  9  8
0.3913332081062212    9  9  1  1
0.3539718802513179    9  9  2  2
0.3539718802513179    9  9  3  3
0.3376535263082958    9  9  4  4
0.0320843150364262    9  9  5  1
0.3489070594439767    9  9  5  5
0.312150681476246    9  9  6  6
0.3121506814762465    9  9  7  7
0.02552419633355191    9  9  8  4
0.2768190378960609    9  9  8  8
-0.02064490287742804    9  9  9  1
-0.03628243606547681    9  9  9  5
0.3101161628078395    9  9  9  9
-0.0383950821597592    10  1  3  1
-0.00789305568862367    10  1  5  3
-0.01207441920203471    10  1  7  4
-0.008552176758536494    10  1  8  7
0.001637838973932023    10  1  9  3
0.02600692858699822    10  1  10  1
-0.004274780552971216    10  2  3  2
0.0001315384504617795    10  2  7  6
0.006817842152397559    10  2  10  2
-0.142451762815547    10  3  1  1
-0.0964245673347954    10  3  2  2
-0.1049741284407378    10  3  3  3
-0.07091904005880244    10  3  4  4
-0.03929090700070083    10  3  5  1
-0.08062045377965041    10  3  5  5
-0.05598888493607717    10  3  6  6
-0.05572580803515428    10  3  7  7
-0.02827556556490676    10  3  8  4
-0.02353722570347144    10  3  8  8
0.02555741054098445    10  3  9  1
0.04035696144626756    10  3  9  5
-0.0452656814456848    10  3  9  9
0.06411391327055022    10  3  10  3
-0.003963338086120475    10  4  4  3
-0.003424154878390984    10  4  7  1
-0.003025172608731327    10  4  7  5
-0.004676630787251506    10  4  8  3
-0.003742131547511792    10  4  9  7
0.008781509616849717    10  4  10  4
-0.0240410455957403    10  5  3  1
-0.0003973047690215475    10  5  5  3
-0.01492269662748795    10  5  7  4
0.001188246039205894    10  5  8  7
-0.002479282346379106    10  5  9  3
0.006466960555938308    10  5  10  1
0.01305422306328563    10  5  10  5
0.0002106600417988917    10  6  6  3
0.0002106600417988669    10  6  7  2
0.005210141418289157    10  6  10  6
-0.005331493007434226    10  7  4  1
-0.005645893702213134    10  7  5  4
-0.004162811092201095    10  7  6  2
-0.003741491008603539    10  7  7  3
-0.008056635630547251    10  7  8  1
0.01335047768946269    10  7  8  5
2.952065675243531e-15    10  7  8  8
-0.01146838015082257    10  7  9  4
0.01769201224229356    10  7  9  8
0.03034374125931048    10  7  10  7
-0.009347408327751218    10  8  4  3
-0.007524223112025753    10  8  7  1
0.008522618015393618    10  8  7  5
-0.002476715307481795    10  8  8  3
0.002529274809754233    10  8  9  7
0.0004734600034404722    10  8  10  4
0.006031867171788266    10  8  10  8
0.01983550100282918    10  9  3  1
0.003243432733938783    10  9  5  3
0.005294856601545772    10  9  7  4
0.005484550415498403    10  9  8  7
0.007421841423851048    10  9  9  3
-0.004363520170133456    10  9  10  1
-0.0067503429056493    10  9  10  5
0.01408671419700976    10  9  10  9
0.4272378490509112    10  10  1  1
0.3751697260631128    10  10  2  2
0.4023012975947762    10  10  3  3
0.344602292842455    10  10  4  4
0.04055262853583214    10  10  5  1
0.3490735356901304    10  10  5  5
0.3189505159063805    10  10  6  6
0.341623442472954    10  10  7  7
0.04565046073230025    10  10  8  4
0.2473058296298012    10  10  8  8
-0.01706871626498383    10  10  9  1
-0.05694967029344607    10  10  9  5
0.3037508598960618    10  10  9  9
-0.05433167931010338    10  10  10  3
0.3468840952859215    10  10  10  10
-0.03839508215975915    11  1  2  1
-0.007893055688623663    11  1  5  2
-0.01207441920203461    11  1  6  4
-0.008552176758536433    11  1  8  6
0.001637838973932034    11  1  9  2
0.02600692858699816    11  1  11  1
-0.1424517628155469    11  2  1  1
-0.1049741284407377    11  2  2  2
-0.09642456733479525    11  2  3  3
-0.07091904005880244    11  2  4  4
-0.03929090700070079    11  2  5  1
-0.08062045377965038    11  2  5  5
-0.05572580803515358    11  2  6  6
-0.05598888493607777    11  2  7  7
-0.02827556556490675    11  2  8  4
-0.02353722570347143    11  2  8  8
0.02555741054098443    11  2  9  1
0.04035696144626753    11  2  9  5
-0.04526568144568481    11  2  9  9
0.05047822896575514    11  2  10  3
-0.05659235551589627    11  2  10  10
0.06411391327055016    11  2  11  2
-0.0042747805529712    11  3  3  2
0.0001315384504617868    11  3  7  6
0.006817842152397557    11  3  10  2
0.006817842152397552    11  3  11  3
-0.003963338086120486    11  4  4  2
-0.003424154878390941    11  4  6  1
-0.00302517260873135    11  4  6  5
-0.004676630787251507    11  4  8  2
-0.003742131547511794    11  4  9  6
0.008781509616849714    11  4  11  4
-0.02404104559574026    11  5  2  1
-0.000397304769021561    11  5  5  2
-0.01492269662748793    11  5  6  4
0.001188246039205943    11  5  8  6
-0.002479282346379098    11  5  9  2
0.006466960555938281    11  5  11  1
0.0130542230632856    11  5  11  5
-0.005331493007433954    11  6  4  1
-0.00564589370221351    11  6  5  4
-0.003741491008603018    11  6  6  2
-0.004162811092200893    11  6  7  3
-0.008056635630547126    11  6  8  1
0.01335047768946269    11  6  8  5
2.940139451346191e-15    11  6  8  8
-0.01146838015082252    11  6  9  4
0.01769201224229378    11  6  9  8
0.019923458422732    11  6  10  7
0.03034374125931039    11  6  11  6
0.0002106600417988527    11  7  6  3
0.0002106600417988283    11  7  7  2
0.005210141418289155    11  7  10  6
0.00521014141828915    11  7  11  7
-0.009347408327751178    11  8  4  2
-0.007524223112025798    11  8  6  1
0.008522618015393555    11  8  6  5
-0.002476715307481823    11  8  8  2
0.002529274809754269    11  8  9  6
0.0004734600034404967    11  8  11  4
0.006031867171788162    11  8  11  8
0.01983550100282919    11  9  2  1
0.00324343273393878    11  9  5  2
0.005294856601545787    11  9  6  4
0.005484550415498394    11  9  8  6
0.007421841423851046    11  9  9  2
-0.004363520170133425    11  9  11  1
-0.006750342905649289    11  9  11  5
0.01408671419700975    11  9  11  9
0.01356578576583165    11  10  3  2
0.01133646328328643    11  10  7  6
0.001130338102896396    11  10  10  2
0.001130338102896405    11  10  11  3
0.01459322352607254    11  10  11  10
0.4272378490509107    11  11  1  1
0.4023012975947755    11  11  2  2
0.3751697260631123    11  11  3  3
0.3446022928424546    11  11  4  4
0.04055262853583207    11  11  5  1
0.3490735356901301    11  11  5  5
0.3416234424729528    11  11  6  6
0.318950515906381    11  11  7  7
0.04565046073230021    11  11  8  4
0.247305829629801    11  11  8  8
-0.01706871626498378    11  11  9  1
-0.056949670293446    11  11  9  5
0.3037508598960615    11  11  9  9
-0.05659235551589625    11  11  10  3
0.3176976482337761    11  11  10  10
-0.05433167931010334    11  11  11  2
0.346884095285921    11  11  11  11
0.07126627062520571    12  1  1  1
0.0472421029139423    12  1  2  2
0.04724210291394232    12  1  3  3
0.04696678199026506    12  1  4  4
0.01780242667484616    12  1  5  1
0.05289520904327311    12  1  5  5
0.03046532523394382    12  1  6  6
0.03046532523394412    12  1  7  7
0.01621206349149852    12  1  8  4
0.01526892750810249    12  1  8  8
-0.01731714624438657    12  1  9  1
-0.02307938232472146    12  1  9  5
0.02382733293688059    12  1  9  9
-0.03163942317067518    12  1  10  3
0.02663493509943156    12  1  10  10
-0.03163942317067519    12  1  11  2
0.02663493509943154    12  1  11  11
0.02258313451180697    12  1  12  1
-0.00544465936538728    12  2  2  1
0.0008283997058143582    12  2  5  2
-0.003099800144768391    12  2  6  4
0.003470341454064181    12  2  8  6
-0.008504394518549565    12  2  9  2
-0.009470640584286528    12  2  11  1
0.008173106511526435    12  2  11  5
-0.009062304763505467    12  2  11  9
0.01912188094241185    12  2  12  2
-0.0054446593653873    12  3  3  1
0.0008283997058143608    12  3  5  3
-0.003099800144768354    12  3  7  4
0.003470341454064184    12  3  8  7
-0.008504394518549572    12  3  9  3
-0.009470640584286523    12  3  10  1
0.008173106511526442    12  3  10  5
-0.009062304763505471    12  3  10  9
0.01912188094241186    12  3  12  3
0.03798526005661331    12  4  4  1
-0.06949478965268828    12  4  5  4
0.0421699324833497    12  4  6  2
0.04216993248334994    12  4  7  3
0.0175381531907638    12  4  8  1
-0.01641006093488369    12  4  8  5
5.774731821200918e-15    12  4  8  8
0.01937153803820239    12  4  9  4
0.01715302282364816    12  4  9  8
-0.019302818048885    12  4  10  7
-0.01930281804888479    12  4  11  6
0.05625073365621681    12  4  12  4
-0.04426201100364744    12  5  1  1
-0.04717191862479984    12  5  2  2
-0.04717191862479978    12  5  3  3
-0.0752532050228851    12  5  4  4
0.009311901823637472    12  5  5  1
-0.06838987216038418    12  5  5  5
-0.03950437895061879    12  5  6  6
-0.03950437895061892    12  5  7  7
-0.02461681534990959    12  5  8  4
-0.01769636787205159    12  5  8  8
-0.00168623993091187    12  5  9  1
0.02145386082386434    12  5  9  5
-0.02423455981635626    12  5  9  9
0.02284764963921726    12  5  10  3
-0.02611646154247252    12  5  10  10
0.02284764963921723    12  5  11  2
-0.02611646154247258    12  5  11  11
-0.01918223639237618    12  5  12  1
0.04269795486625431    12  5  12  5
0.003438211718351992    12  6  4  2
0.001544193064864004    12  6  6  1
0.001809404876810576    12  6  6  5
0.004076945417517969    12  6  8  2
0.00347870037924532    12  6  9  6
-0.01006967722273173    12  6  11  4
-0.0001537690280267405    12  6  11  8
0.01421234891061359    12  6  12  6
0.003438211718352125    12  7  4  3
0.00154419306486414    12  7  7  1
0.001809404876810412    12  7  7  5
0.004076945417518015    12  7  8  3
0.003478700379245329    12  7  9  7
-0.01006967722273174    12  7  10  4
-0.0001537690280267006    12  7  10  8
0.01421234891061362    12  7  12  7
0.03097616214594476    12  8  4  1
-0.06203381688748867    12  8  5  4
0.03788896259026434    12  8  6  2
0.03788896259026447    12  8  7  3
0.00897638309497426    12  8  8  1
-3.083687818983272e-15    12  8  8  4
0.00905992981274332    12  8  8  5
-1.724922288337538e-14    12  8  8  8
-0.0009679838356024575    12  8  9  4
0.04577067365919858    12  8  9  8
0.001480468732312592    12  8  10  7
-1.203898092327904e-15    12  8  10  10
0.001480468732313328    12  8  11  6
0.02676123059135195    12  8  12  4
0.03129411486500984    12  8  12  8
-0.02859597192975552    12  9  1  1
-0.01987899581866723    12  9  2  2
-0.01987899581866726    12  9  3  3
0.0188914177550622    12  9  4  4
-0.01667811367561964    12  9  5  1
0.01630573612101348    12  9  5  5
-0.001085030535957414    12  9  6  6
-0.001085030535957142    12  9  7  7
-0.004656433702846517    12  9  8  4
0.02182414821421027    12  9  8  8
-0.001909708494390855    12  9  9  1
0.009520772475261402    12  9  9  5
-0.001005774672073985    12  9  9  9
-0.004565909291699624    12  9  10  3
-0.01709494545359058    12  9  10  10
-0.004565909291699656    12  9  11  2
-0.01709494545359065    12  9  11  11
0.009626490244842769    12  9  12  1
-0.01661626962026612    12  9  12  5
0.0280808911290496    12  9  12  9
-0.04669396268701499    12  10  3  1
0.01322384011051812    12  10  5  3
-0.04053694922009398    12  10  7  4
-0.006001681500022547    12  10  8  7
-0.01828686783131559    12  10  9  3
0.006374732839470612    12  10  10  1
0.01632736978233561    12  10  10  5
-0.01422072503408918    12  10  10  9
0.01338550378854488    12  10  12  3
0.04383089490204371    12  10  12  10
-0.04669396268701496    12  11  2  1
0.01322384011051811    12  11  5  2
-0.04053694922009395    12  11  6  4
-0.006001681500022431    12  11  8  6
-0.01828686783131558    12  11  9  2
0.006374732839470599    12  11  11  1
0.01632736978233558    12  11  11  5
-0.01422072503408918    12  11  11  9
0.01338550378854487    12  11  12  2
0.04383089490204371    12  11  12  11
0.4222643202984804    12  12  1  1
0.3994993052777125    12  12  2  2
0.3994993052777127    12  12  3  3
0.3933627749246633    12  12  4  4
0.01834423643092175    12  12  5  1
0.3895699174636004    12  12  5  5
0.3507772111671651    12  12  6  6
0.3507772111671665    12  12  7  7
0.0542038967321241    12  12  8  4
0.2680691402763591    12  12  8  8
-0.007150269682155359    12  12  9  1
-0.05814877693553657    12  12  9  5
-3.724342882704956e-15    12  12  9  8
0.3188315120187378    12  12  9  9
-0.05482338676654715    12  12  10  3
0.3359522587606084    12  12  10  10
-0.05482338676654724    12  12  11  2
0.3359522587606077    12  12  11  11
0.03170017325101936    12  12  12  1
-0.05469595249458779    12  12  12  5
-0.001289803417799767    12  12  12  9
0.3694933999833291    12  12  12  12
-0.01938681027369565    13  1  4  3
-0.0178686439734386    13  1  7  1
0.00792595485765845    13  1  7  5
-0.01080931484264876    13  1  8  3
-0.00356352496146858    13  1  9  7
0.008516295534440319    13  1  10  4
0.005854135049803129    13  1  10  8
-0.008139795497481074    13  1  12  7
0.01936753062758604    13  1  13  1
-0.005958778446591906    13  2  6  3
-0.005958778446591949    13  2  7  2
0.004238230455017324    13  2  10  6
0.004238230455017349    13  2  11  7
0.007431930456205517    13  2  13  2
-0.04615667086485838    13  3  4  1
0.05981736694919931    13  3  5  4
-0.05196878561073345    13  3  6  2
-0.06388634250391767    13  3  7  3
-0.02400691939301339    13  3  8  1
0.01155757764611962    13  3  8  5
2.284630817861455e-15    13  3  8  8
-0.01748124076805449    13  3  9  4
-0.01973330669747365    13  3  9  8
0.02812048986401038    13  3  10  7
0.01964402895397543    13  3  11  6
-0.0461803650875426    13  3  12  4
-0.02591410126296535    13  3  12  8
0.06718282316977769    13  3  13  3
-0.02944536860168596    13  4  3  1
0.008109590057440167    13  4  5  3
-0.02364928656020707    13  4  7  4
-0.01326672225501159    13  4  8  7
-0.007550250984616199    13  4  9  3
0.01528706344587245    13  4  10  1
-0.001428902301563106    13  4  10  5
-0.001136170812557994    13  4  10  9
-0.01155962883930561    13  4  12  3
0.01093612432176969    13  4  12  10
0.02474867740091308    13  4  13  4
0.008853946071529385    13  5  4  3
0.003938304776860963    13  5  7  1
-0.006617167951222322    13  5  7  5
0.005185502828607612    13  5  8  3
0.00603508229825896    13  5  9  7
-0.006341660443910051    13  5  10  4
-9.04983151927446e-05    13  5  10  8
0.009860765853373867    13  5  12  7
-0.005249512310763252    13  5  13  1
0.01199659380553085    13  5  13  5
-0.005846194169651358    13  6  3  2
-0.001754638783151266    13  6  7  6
0.005600606241159245    13  6  10  2
0.005600606241159244    13  6  11  3
0.000185281685176578    13  6  11  10
0.007381159638379126    13  6  13  6
-0.1430579862733335    13  7  1  1
-0.1104358950886068    13  7  2  2
-0.1221282834279095    13  7  3  3
-0.09794762602351122    13  7  4  4
-0.02486043893586046    13  7  5  1
-0.0977244100562948    13  7  5  5
-0.07196161664217664    13  7  6  6
-0.07547089420848067    13  7  7  7
-0.03784186333249213    13  7  8  4
-0.02725681650550653    13  7  8  8
0.01462774767748899    13  7  9  1
0.04385153161366843    13  7  9  5
-0.05307315965473644    13  7  9  9
0.0602580569409296    13  7  10  3
-0.06646628520935381    13  7  10  10
0.0490568444586112    13  7  11  2
-0.0668368485797069    13  7  11  11
-0.03124174130201322    13  7  12  1
0.03522693518191814    13  7  12  5
-0.003567279971818661    13  7  12  9
-0.0771556399538    13  7  12  12
0.07144876297502359    13  7  13  7
-0.02665323705348776    13  8  3  1
0.009542889266785563    13  8  5  3
-0.02722126378503395    13  8  7  4
-0.0007641927946080547    13  8  8  7
-0.005801007227536507    13  8  9  3
0.007824922576258967    13  8  10  1
0.008117556109488588    13  8  10  5
0.0006405469403596698    13  8  10  9
-0.0002602581139970559    13  8  12  3
0.02009359373476433    13  8  12  10
0.01032479504365763    13  8  13  4
0.017954701392764    13  8  13  8
-0.009538091157278427    13  9  4  3
-0.0056239361196461    13  9  7  1
0.01172838792962093    13  9  7  5
-0.00165283630921417    13  9  8  3
0.00182560895141656    13  9  9  7
-0.0007715856897634278    13  9  10  4
0.005838182235352524    13  9  10  8
0.0003515722799164297    13  9  12  7
0.002269351039335231    13  9  13  1
-0.002540498074071094    13  9  13  5
0.008409389816299528    13  9  13  9
0.05001943471564619    13  10  4  1
-0.07526027582116578    13  10  5  4
0.06023016223710051    13  10  6  2
0.07394482461807944    13  10  7  3
0.0209527273504528    13  10  8  1
0.00260399051335888    13  10  8  5
3.438221929386032e-15    13  10  8  8
0.007988559644867292    13  10  9  4
0.04533324189714726    13  10  9  8
-0.002650780288291312    13  10  10  7
-0.003988382082453426    13  10  11  6
0.03505578193341729    13  10  12  4
0.03543972691569659    13  10  12  8
-0.05358551613682102    13  10  13  3
0.07141990030301158    13  10  13  10
0.006857331190489304    13  11  6  3
0.006857331190489326    13  11  7  2
0.0006688008970811832    13  11  10  6
0.0006688008970811457    13  11  11  7
-0.004121463988406238    13  11  13  2
0.007205025041007602    13  11  13  11
-0.02485349817681812    13  12  4  3
-0.01866308083136228    13  12  7  1
0.02181738491964269    13  12  7  5
-0.009021203711563798    13  12  8  3
-0.001912170720599917    13  12  9  7
0.001687467154367791    13  12  10  4
0.009375079863431593    13  12  10  8
-0.001008356967514264    13  12  12  7
0.01309660481063904    13  12  13  1
-0.005801688143764432    13  12  13  5
0.009949149762649944    13  12  13  9
0.02417628856839287    13  12  13  12
0.452808546169304    13  13  1  1
0.4015455540961803    13  13  2  2
0.4275021135379485    13  13  3  3
0.3896314813505552    13  13  4  4
0.03523261043825789    13  13  5  1
0.3893182063741086    13  13  5  5
0.3437122328089251    13  13  6  6
0.3676248328709367    13  13  7  7
0.05673932065919877    13  13  8  4
-1.767574801803118e-15    13  13  8  5
0.2686119883098671    13  13  8  8
-0.0214966102968831    13  13  9  1
-0.06504931512307531    13  13  9  5
0.3171024232190475    13  13  9  9
-0.08038932504088687    13  13  10  3
0.3524719187284934    13  13  10  10
-0.0752260524548355    13  13  11  2
0.3303033212392485    13  13  11  11
0.04379457215326946    13  13  12  1
-0.04906721412458287    13  13  12  5
0.003661546768108466    13  13  12  9
0.3590077962837728    13  13  12  12
-0.09519459502746908    13  13  13  7
0.3903453953144732    13  13  13  13
-0.01938681027369577    14  1  4  2
-0.01786864397343859    14  1  6  1
0.007925954857658523    14  1  6  5
-0.01080931484264881    14  1  8  2
-0.003563524961468584    14  1  9  6
0.008516295534440329    14  1  11  4
0.005854135049803129    14  1  11  8
-0.008139795497481004    14  1  12  6
0.01936753062758619    14  1  14  1
-0.04615667086485867    14  2  4  1
0.05981736694919981    14  2  5  4
-0.06388634250391767    14  2  6  2
-0.05196878561073414    14  2  7  3
-0.02400691939301351    14  2  8  1
0.01155757764611962    14  2  8  5
2.272054072660623e-15    14  2  8  8
-0.01748124076805454    14  2  9  4
-0.01973330669747391    14  2  9  8
0.0196440289539757    14  2  10  7
0.02812048986401007    14  2  11  6
-0.04618036508754281    14  2  12  4
-0.02591410126296555    14  2  12  8
0.05231896225736694    14  2  13  3
-0.04534258816000884    14  2  13  10
0.06718282316977828    14  2  14  2
-0.005958778446591954    14  3  6  3
-0.005958778446591995    14  3  7  2
0.004238230455017322    14  3  10  6
0.004238230455017346    14  3  11  7
0.007431930456205543    14  3  13  2
-0.004121463988406267    14  3  13  11
0.007431930456205567    14  3  14  3
-0.02944536860168624    14  4  2  1
0.008109590057440299    14  4  5  2
-0.02364928656020729    14  4  6  4
-0.01326672225501158    14  4  8  6
-0.007550250984616284    14  4  9  2
0.01528706344587249    14  4  11  1
-0.001428902301563042    14  4  11  5
-0.001136170812558006    14  4  11  9
-0.01155962883930559    14  4  12  2
0.01093612432176991    14  4  12  11
0.02474867740091334    14  4  14  4
0.008853946071529537    14  5  4  2
0.003938304776861058    14  5  6  1
-0.006617167951222436    14  5  6  5
0.005185502828607657    14  5  8  2
0.006035082298258947    14  5  9  6
-0.006341660443910037    14  5  11  4
-9.049831519278988e-05    14  5  11  8
0.009860765853373827    14  5  12  6
-0.005249512310763339    14  5  14  1
0.01199659380553094    14  5  14  5
-0.1430579862733332    14  6  1  1
-0.1221282834279093    14  6  2  2
-0.1104358950886066    14  6  3  3
-0.09794762602351116    14  6  4  4
-0.02486043893586031    14  6  5  1
-0.09772441005629459    14  6  5  5
-0.07547089420847948    14  6  6  6
-0.07196161664217705    14  6  7  7
-0.03784186333249205    14  6  8  4
-0.02725681650550648    14  6  8  8
0.01462774767748891    14  6  9  1
0.04385153161366828    14  6  9  5
-0.05307315965473638    14  6  9  9
0.04905684445861105    14  6  10  3
-0.0668368485797067    14  6  10  10
0.06025805694092935    14  6  11  2
-0.06646628520935376    14  6  11  11
-0.03124174130201312    14  6  12  1
0.03522693518191809    14  6  12  5
-0.003567279971818659    14  6  12  9
-0.0771556399538    14  6  12  12
0.05668644369826652    14  6  13  7
-0.08863633351332154    14  6  13  13
0.07144876297502321    14  6  14  6
-0.005846194169651496    14  7  3  2
-0.001754638783151401    14  7  7  6
0.005600606241159261    14  7  10  2
0.005600606241159259    14  7  11  3
0.0001852816851764619    14  7  11  10
0.007381159638379155    14  7  13  6
0.007381159638379177    14  7  14  7
-0.02665323705348795    14  8  2  1
0.009542889266785589    14  8  5  2
-0.02722126378503427    14  8  6  4
-0.000764192794608063    14  8  8  6
-0.005801007227536434    14  8  9  2
0.007824922576258986    14  8  11  1
0.008117556109488503    14  8  11  5
0.0006405469403596741    14  8  11  9
-0.0002602581139970913    14  8  12  2
0.02009359373476438    14  8  12  11
0.01032479504365775    14  8  14  4
0.01795470139276385    14  8  14  8
-0.00953809115727846    14  9  4  2
-0.005623936119646091    14  9  6  1
0.0117283879296209    14  9  6  5
-0.001652836309214189    14  9  8  2
0.001825608951416568    14  9  9  6
-0.0007715856897633935    14  9  11  4
0.005838182235352609    14  9  11  8
0.0003515722799164553    14  9  12  6
0.00226935103933528    14  9  14  1
-0.002540498074071191    14  9  14  5
0.00840938981629954    14  9  14  9
0.0068573311904893    14  10  6  3
0.006857331190489324    14  10  7  2
0.0006688008970811596    14  10  10  6
0.0006688008970811218    14  10  11  7
-0.004121463988406256    14  10  13  2
0.007205025041007598    14  10  13  11
-0.004121463988406286    14  10  14  3
0.007205025041007597    14  10  14  10
0.05001943471564617    14  11  4  1
-0.07526027582116569    14  11  5  4
0.07394482461807901    14  11  6  2
0.06023016223710077    14  11  7  3
0.02095272735045281    14  11  8  1
0.00260399051335881    14  11  8  5
3.383578139892762e-15    14  11  8  8
0.007988559644867346    14  11  9  4
0.04533324189714714    14  11  9  8
-0.003988382082453823    14  11  10  7
-0.002650780288291094    14  11  11  6
0.03505578193341737    14  11  12  4
0.03543972691569656    14  11  12  8
-0.04534258816000858    14  11  13  3
0.05700985022099645    14  11  13  10
-0.05358551613682146    14  11  14  2
0.07141990030301155    14  11  14  11
-0.02485349817681815    14  12  4  2
-0.01866308083136222    14  12  6  1
0.0218173849196427    14  12  6  5
-0.009021203711563829    14  12  8  2
-0.001912170720599899    14  12  9  6
0.001687467154367845    14  12  11  4
0.009375079863431477    14  12  11  8
-0.001008356967514228    14  12  12  6
0.01309660481063915    14  12  14  1