 &FCI NORB=26,NELEC=8,MS2=0,
  ORBSYM=1,5,3,2,1,7,6,5,1,2,3,5,1,6,7,5,3,2,1,4,8,5,1,7,6,5,
  ISYM=1,
 &END
0.5264829446651998    1  1  1  1
0.1083051305608837    2  1  2  1
0.4259724802633492    2  2  1  1
0.4315881793586913    2  2  2  2
0.0726327807675832    3  1  3  1
0.04216500786507819    3  2  3  2
0.4525979599325227    3  3  1  1
0.3981472064988334    3  3  2  2
0.4301895063946694    3  3  3  3
0.07263278076758323    4  1  4  1
0.04216500786507821    4  2  4  2
0.01651770908853193    4  3  4  3
0.4525979599325229    4  4  1  1
0.3981472064988336    4  4  2  2
0.3971540882176058    4  4  3  3
0.4301895063946698    4  4  4  4
0.08852411837227173    5  1  1  1
0.001666221466798862    5  1  2  2
0.04763256549972933    5  1  3  3
0.04763256549972935    5  1  4  4
0.07204946196823662    5  1  5  1
-0.08909936832877122    5  2  2  1
0.1121929869759224    5  2  5  2
0.002166745954438836    5  3  3  1
0.01657567477042324    5  3  5  3
0.002166745954438842    5  4  4  1
0.01657567477042324    5  4  5  4
0.4396252089332282    5  5  1  1
0.4184537371783777    5  5  2  2
0.3904354914770852    5  5  3  3
0.3904354914770853    5  5  4  4
0.02600915017512605    5  5  5  1
0.4317023685501845    5  5  5  5
0.03967035560594485    6  1  3  2
0.03834015399979716    6  1  6  1
0.05977805825762263    6  2  3  1
-0.01348220546822171    6  2  5  3
0.0637105739888727    6  2  6  2
0.1107998796887804    6  3  2  1
-0.08658731876780665    6  3  5  2
0.1302970843162248    6  3  6  3
0.01211987967519985    6  4  6  4
-0.02053726647661957    6  5  3  2
-0.01631549738254139    6  5  6  1
0.02060061705975807    6  5  6  5
0.4165308814488171    6  6  1  1
0.396733669528988    6  6  2  2
0.4048809366503081    6  6  3  3
0.3757639494897365    6  6  4  4
0.0200433167209971    6  6  5  1
0.3819313307205995    6  6  5  5
0.3970376569932948    6  6  6  6
0.03967035560594487    7  1  4  2
0.03834015399979716    7  1  7  1
0.05977805825762264    7  2  4  1
-0.01348220546822172    7  2  5  4
0.06371057398887273    7  2  7  2
0.01211987967519985    7  3  6  4
0.01211987967519985    7  3  7  3
0.1107998796887805    7  4  2  1
-0.08658731876780668    7  4  5  2
0.1060573249658251    7  4  6  3
0.1302970843162249    7  4  7  4
-0.02053726647661958    7  5  4  2
-0.0163154973825414    7  5  7  1
0.02060061705975809    7  5  7  5
0.01455849358028587    7  6  4  3
0.01528017855404076    7  6  7  6
0.4165308814488171    7  7  1  1
0.3967336695289881    7  7  2  2
0.3757639494897365    7  7  3  3
0.4048809366503084    7  7  4  4
0.0200433167209971    7  7  5  1
0.3819313307205995    7  7  5  5
0.3664772998852132    7  7  6  6
0.3970376569932949    7  7  7  7
0.04279802662972047    8  1  2  1
-0.007284329209176728    8  1  5  2
0.04594302756419369    8  1  6  3
0.04594302756419377    8  1  7  4
0.03807465651816421    8  1  8  1
0.07659889171355917    8  2  1  1
0.03317242759802518    8  2  2  2
0.05982130773459967    8  2  3  3
0.05982130773459959    8  2  4  4
0.035454115070758    8  2  5  1
0.02876796177828338    8  2  5  5
0.04440392754124405    8  2  6  6
0.04440392754124417    8  2  7  7
0.0358623170257442    8  2  8  2
0.01726547779654248    8  3  3  2
0.01863427825051298    8  3  6  1
0.000549396460578958    8  3  6  5
0.01489172833817909    8  3  8  3
0.01726547779654247    8  4  4  2
0.01863427825051295    8  4  7  1
0.0005493964605789595    8  4  7  5
0.0148917283381791    8  4  8  4
0.06079390803786856    8  5  2  1
-0.06071398388907921    8  5  5  2
0.05918956214399913    8  5  6  3
0.05918956214399907    8  5  7  4
0.01587103593559087    8  5  8  1
0.05750162573530598    8  5  8  5
0.02626427168633714    8  6  3  1
0.006189901898949544    8  6  5  3
0.01702261393832694    8  6  6  2
0.01636531231634844    8  6  8  6
0.02626427168633715    8  7  4  1
0.006189901898949544    8  7  5  4
0.01702261393832695    8  7  7  2
0.01636531231634846    8  7  8  7
0.3504729780298128    8  8  1  1
0.330409062741239    8  8  2  2
0.3205577509279487    8  8  3  3
0.3205577509279486    8  8  4  4
0.02057959212972135    8  8  5  1
0.3392739512791836    8  8  5  5
0.3140195269199745    8  8  6  6
0.3140195269199745    8  8  7  7
0.01526206926435566    8  8  8  2
0.3095986425696129    8  8  8  8
-0.01011005915711731    9  1  1  1
0.01910455347970094    9  1  2  2
0.006931452860238355    9  1  3  3
0.00693145286023841    9  1  4  4
-0.02513125769160108    9  1  5  1
0.001380176669621143    9  1  5  5
0.01230367395837144    9  1  6  6
0.01230367395837147    9  1  7  7
-0.001637795362107868    9  1  8  2
-0.005444248829057224    9  1  8  8
0.01827251964490499    9  1  9  1
0.03723883333059169    9  2  2  1
-0.0337709159941525    9  2  5  2
0.03596004693922485    9  2  6  3
0.03596004693922486    9  2  7  4
0.01519878828717173    9  2  8  1
0.00508505798933578    9  2  8  5
0.03361254929757964    9  2  9  2
0.01236881745221664    9  3  3  1
-0.004008101468075394    9  3  5  3
0.01354674519295761    9  3  6  2
0.006368369784975117    9  3  8  6
0.008575400059699515    9  3  9  3
0.01236881745221664    9  4  4  1
-0.004008101468075396    9  4  5  4
0.01354674519295761    9  4  7  2
0.006368369784975118    9  4  8  7
0.008575400059699518    9  4  9  4
-0.1098716440119817    9  5  1  1
-0.08422845180585679    9  5  2  2
-0.08265629027781271    9  5  3  3
-0.08265629027781274    9  5  4  4
-0.02582280083060001    9  5  5  1
-0.08740072535153307    9  5  5  5
-0.07317990645855105    9  5  6  6
-0.07317990645855112    9  5  7  7
-0.03146834981163969    9  5  8  2
-0.03452422140149197    9  5  8  8
-0.003241828041020953    9  5  9  1
0.06444401743384716    9  5  9  5
0.009173988783252561    9  6  3  2
0.007783128573634091    9  6  6  1
-0.003744193437086881    9  6  6  5
0.005540560680164906    9  6  8  3
0.01025384903139365    9  6  9  6
0.009173988783252577    9  7  4  2
0.007783128573634101    9  7  7  1
-0.003744193437086886    9  7  7  5
0.005540560680164904    9  7  8  4
0.01025384903139365    9  7  9  7
0.03435292223166622    9  8  2  1
-0.05182292806996505    9  8  5  2
0.03697406869852842    9  8  6  3
0.03697406869852826    9  8  7  4
-0.007967221145130524    9  8  8  1
0.04336690776280169    9  8  8  5
-0.007857141082593349    9  8  9  2
0.06188699693348784    9  8  9  8
0.3569277104493893    9  9  1  1
0.3567926768165351    9  9  2  2
0.3297840955763396    9  9  3  3
0.3297840955763396    9  9  4  4
0.006502224501459314    9  9  5  1
0.3625354625408034    9  9  5  5
0.3293646714898233    9  9  6  6
0.3293646714898233    9  9  7  7
0.01344659137228052    9  9  8  2
0.3087726092895658    9  9  8  8
0.00400251759613974    9  9  9  1
-0.05496101643320617    9  9  9  5
0.3290906752351824    9  9  9  9
0.02232087764271041    10  1  4  1
0.002559747050268469    10  1  5  4
0.01802130061604067    10  1  7  2
0.01204143352998318    10  1  8  7
0.00424558837308506    10  1  9  4
0.0188190186438609    10  1  10  1
0.01659973475774169    10  2  4  2
0.01611031267236294    10  2  7  1
-0.004266201253071837    10  2  7  5
0.01035205983224344    10  2  8  4
0.009439289348740059    10  2  9  7
0.01534519153860139    10  2  10  2
0.002313796209430937    10  3  4  3
0.002628420540678415    10  3  7  6
0.006807353281134317    10  3  10  3
0.1004653522224213    10  4  1  1
0.08173235104410938    10  4  2  2
0.07532882500402498    10  4  3  3
0.07995641742288682    10  4  4  4
0.01930236990154199    10  4  5  1
0.07994836015549395    10  4  5  5
0.07048155308839076    10  4  6  6
0.07573839416974756    10  4  7  7
0.02580915652664927    10  4  8  2
0.04953014552757243    10  4  8  8
0.001271454421157808    10  4  9  1
-0.04567624714363971    10  4  9  5
0.05764736734512543    10  4  9  9
0.06022965301255565    10  4  10  4
0.006719303057124148    10  5  4  1
0.00506461301832664    10  5  5  4
0.001732803446215099    10  5  7  2
0.001153398733719334    10  5  8  7
-0.005322107893535197    10  5  9  4
0.001052628824518816    10  5  10  1
0.007312753870527085    10  5  10  5
0.0034478712475433    10  6  6  4
0.003447871247543302    10  6  7  3
0.005892593419182893    10  6  10  6
0.04691893071601187    10  7  2  1
-0.02573556292787873    10  7  5  2
0.0428345153880188    10  7  6  3
0.04973025788310542    10  7  7  4
0.02977762327222027    10  7  8  1
0.01611728539029353    10  7  8  5
0.02756538075839382    10  7  9  2
-0.005728152417501033    10  7  9  8
0.04821466104767945    10  7  10  7
0.01512760815176642    10  8  4  2
0.01546187837744538    10  8  7  1
-0.004899763980862257    10  8  7  5
0.007299208736929055    10  8  8  4
-0.0003215105142676888    10  8  9  7
0.007300129974235029    10  8  10  2
0.01044459151249328    10  8  10  8
0.007655306469690078    10  9  4  1
-0.01070309041800734    10  9  5  4
0.01642266807062912    10  9  7  2
-0.002114321914858538    10  9  8  7
0.003267246367413221    10  9  9  4
0.002936300073062283    10  9  10  1
-0.001913770293414413    10  9  10  5
0.0114043232048149    10  9  10  9
0.3933017226831464    10  10  1  1
0.3564890453988697    10  10  2  2
0.3536836503117772    10  10  3  3
0.3784395682668385    10  10  4  4
0.03336483353106012    10  10  5  1
0.3488911769995264    10  10  5  5
0.338890888777795    10  10  6  6
0.3617360125996432    10  10  7  7
0.04676279728697746    10  10  8  2
0.292359986943655    10  10  8  8
0.006713573900512802    10  10  9  1
-0.06894137158281062    10  10  9  5
0.3056941106731183    10  10  9  9
0.06345129115558293    10  10  10  4
0.3528622619626925    10  10  10  10
0.02232087764271041    11  1  3  1
0.002559747050268479    11  1  5  3
0.01802130061604064    11  1  6  2
0.01204143352998318    11  1  8  6
0.004245588373085055    11  1  9  3
0.01881901864386089    11  1  11  1
0.01659973475774165    11  2  3  2
0.01611031267236291    11  2  6  1
-0.004266201253071818    11  2  6  5
0.01035205983224343    11  2  8  3
0.009439289348740051    11  2  9  6
0.01534519153860136    11  2  11  2
0.1004653522224212    11  3  1  1
0.08173235104410928    11  3  2  2
0.0799564174228867    11  3  3  3
0.07532882500402482    11  3  4  4
0.019302369901542    11  3  5  1
0.07994836015549379    11  3  5  5
0.07573839416974741    11  3  6  6
0.0704815530883907    11  3  7  7
0.02580915652664926    11  3  8  2
0.04953014552757231    11  3  8  8
0.001271454421157798    11  3  9  1
-0.04567624714363968    11  3  9  5
0.05764736734512534    11  3  9  9
0.04661494645028701    11  3  10  4
0.06263071371642989    11  3  10  10
0.06022965301255556    11  3  11  3
0.002313796209430938    11  4  4  3
0.002628420540678412    11  4  7  6
0.006807353281134315    11  4  10  3
0.006807353281134314    11  4  11  4
0.006719303057124175    11  5  3  1
0.005064613018326631    11  5  5  3
0.001732803446215129    11  5  6  2
0.001153398733719342    11  5  8  6
-0.005322107893535188    11  5  9  3
0.001052628824518828    11  5  11  1
0.007312753870527082    11  5  11  5
0.04691893071601178    11  6  2  1
-0.02573556292787863    11  6  5  2
0.04973025788310532    11  6  6  3
0.04283451538801875    11  6  7  4
0.02977762327222024    11  6  8  1
0.01611728539029347    11  6  8  5
0.02756538075839378    11  6  9  2
-0.005728152417501069    11  6  9  8
0.03642947420931366    11  6  10  7
0.04821466104767939    11  6  11  6
0.003447871247543298    11  7  6  4
0.003447871247543299    11  7  7  3
0.00589259341918289    11  7  10  6
0.00589259341918289    11  7  11  7
0.01512760815176642    11  8  3  2
0.0154618783774454    11  8  6  1
-0.004899763980862283    11  8  6  5
0.007299208736929053    11  8  8  3
-0.0003215105142676931    11  8  9  6
0.007300129974234982    11  8  11  2
0.01044459151249321    11  8  11  8
0.007655306469690075    11  9  3  1
-0.01070309041800733    11  9  5  3
0.01642266807062909    11  9  6  2
-0.002114321914858537    11  9  8  6
0.003267246367413215    11  9  9  3
0.002936300073062273    11  9  11  1
-0.001913770293414397    11  9  11  5
0.01140432320481489    11  9  11  9
0.01237795897753061    11  10  4  3
0.01142256191092413    11  10  7  6
0.0004102887195764521    11  10  10  3
0.0004102887195764535    11  10  11  4
0.01315840016020595    11  10  11  10
0.3933017226831463    11  11  1  1
0.3564890453988696    11  11  2  2
0.3784395682668382    11  11  3  3
0.3536836503117771    11  11  4  4
0.03336483353106012    11  11  5  1
0.3488911769995262    11  11  5  5
0.3617360125996429    11  11  6  6
0.3388908887777948    11  11  7  7
0.04676279728697742    11  11  8  2
0.2923599869436548    11  11  8  8
0.006713573900512785    11  11  9  1
-0.06894137158281055    11  11  9  5
0.3056941106731181    11  11  9  9
0.06263071371642992    11  11  10  4
0.3265454616422804    11  11  10  10
0.06345129115558271    11  11  11  3
0.3528622619626922    11  11  11  11
-0.01611948348301607    12  1  2  1
-0.01606107371052862    12  1  5  2
-0.01992804421268616    12  1  6  3
-0.01992804421268613    12  1  7  4
-0.0272151682301387    12  1  8  1
-0.0117949917742386    12  1  8  5
0.006909086531796819    12  1  9  2
0.00418864359460557    12  1  9  8
-0.01135044335759885    12  1  10  7
-0.01135044335759887    12  1  11  6
0.03140965163713401    12  1  12  1
0.00575081747477338    12  2  1  1
0.05255197542959868    12  2  2  2
0.01330511876510688    12  2  3  3
0.01330511876510686    12  2  4  4
-0.03525322424212191    12  2  5  1
0.04578310843764869    12  2  5  5
0.02568580894707856    12  2  6  6
0.02568580894707859    12  2  7  7
-0.01265397916776898    12  2  8  2
0.009857903247425    12  2  8  8
0.01861621586229945    12  2  9  1
-0.02276789576769135    12  2  9  5
0.03491426410149277    12  2  9  9
0.01236563884552361    12  2  10  4
0.01453755473968867    12  2  10  10
0.01236563884552356    12  2  11  3
0.01453755473968863    12  2  11  11
0.04679146062158581    12  2  12  2
-0.00674098841810368    12  3  3  2
-0.009249867764484814    12  3  6  1
-0.004422746708072764    12  3  6  5
-0.008520951778649337    12  3  8  3
0.003886227644802845    12  3  9  6
-0.000758806537110391    12  3  11  2
-0.006399631272673757    12  3  11  8
0.01109783483462988    12  3  12  3
-0.00674098841810369    12  4  4  2
-0.009249867764484819    12  4  7  1
-0.004422746708072768    12  4  7  5
-0.00852095177864934    12  4  8  4
0.003886227644802846    12  4  9  7
-0.0007588065371103867    12  4  10  2
-0.006399631272673758    12  4  10  8
0.01109783483462988    12  4  12  4
-0.08473068447975519    12  5  2  1
0.07385973470037727    12  5  5  2
-0.07884832389830625    12  5  6  3
-0.0788483238983063    12  5  7  4
-0.03624290877350282    12  5  8  1
-0.04461233178760782    12  5  8  5
-0.04545742684141266    12  5  9  2
-0.002342002878665385    12  5  9  8
-0.04898069886309752    12  5  10  7
-0.04898069886309744    12  5  11  6
0.006730961562299831    12  5  12  1
0.0984360321559629    12  5  12  5
-0.01669619402520219    12  6  3  1
-0.007512458826078742    12  6  5  3
-0.007920922107689857    12  6  6  2
-0.007156245107332971    12  6  8  6
0.003134634532484416    12  6  9  3
-0.003127641210993778    12  6  11  1
-0.008410092213550964    12  6  11  5
0.002500236168827851    12  6  11  9
0.01344495661020412    12  6  12  6
-0.01669619402520219    12  7  4  1
-0.007512458826078749    12  7  5  4
-0.007920922107689849    12  7  7  2
-0.007156245107332972    12  7  8  7
0.00313463453248442    12  7  9  4
-0.003127641210993769    12  7  10  1
-0.008410092213550964    12  7  10  5
0.00250023616882786    12  7  10  9
0.01344495661020412    12  7  12  7
-0.11820682217029    12  8  1  1
-0.07505427366815527    12  8  2  2
-0.08935635019056581    12  8  3  3
-0.08935635019056584    12  8  4  4
-0.03831462929319117    12  8  5  1
-0.07964952974849121    12  8  5  5
-0.07352930708045952    12  8  6  6
-0.07352930708045979    12  8  7  7
-0.03608788856859822    12  8  8  2
-0.03860356739455793    12  8  8  8
0.003471001271905079    12  8  9  1
0.05208700307553799    12  8  9  5
-0.04376713196508096    12  8  9  9
-0.03917789392127571    12  8  10  4
-0.07140676719912674    12  8  10  10
-0.03917789392127581    12  8  11  3
-0.07140676719912679    12  8  11  11
-0.003589521380474507    12  8  12  2
0.05675829116733526    12  8  12  8
0.09414593009061292    12  9  2  1
-0.09569665315248976    12  9  5  2
0.09190271554894912    12  9  6  3
0.09190271554894898    12  9  7  4
0.02660323244795035    12  9  8  1
0.06958341231125925    12  9  8  5
0.03208668626841372    12  9  9  2
0.04603176427892394    12  9  9  8
0.03795937599516208    12  9  10  7
0.03795937599516198    12  9  11  6
-0.006283726171273905    12  9  12  1
-0.08588326782189563    12  9  12  5
0.1143842420539886    12  9  12  9
0.003967994396218786    12  10  4  2
0.0008764376328555591    12  10  7  1
-0.0106275051153123    12  10  7  5
-0.005545303385479778    12  10  8  4
0.001597990348791771    12  10  9  7
-0.001830578362051936    12  10  10  2
-0.001686032839212777    12  10  10  8
0.006559886762956411    12  10  12  4
0.01030233892412015    12  10  12  10
0.003967994396218782    12  11  3  2
0.0008764376328555547    12  11  6  1
-0.01062750511531229    12  11  6  5
-0.005545303385479777    12  11  8  3
0.001597990348791761    12  11  9  6
-0.001830578362051962    12  11  11  2
-0.001686032839212807    12  11  11  8
0.006559886762956411    12  11  12  3
0.01030233892412014    12  11  12  11
0.4375856624722002    12  12  1  1
0.422357670109289    12  12  2  2
0.3914781015869721    12  12  3  3
0.3914781015869724    12  12  4  4
0.02257229955519267    12  12  5  1
0.4304477017044075    12  12  5  5
0.3840913885332774    12  12  6  6
0.3840913885332774    12  12  7  7
0.034873590099568    12  12  8  2
0.3376504153789999    12  12  8  8
0.007127975680072744    12  12  9  1
-0.1014365360724781    12  12  9  5
0.3700212566823222    12  12  9  9
0.09163615400545091    12  12  10  4
0.3563954704567777    12  12  10  10
0.09163615400545075    12  12  11  3
0.3563954704567775    12  12  11  11
0.05384609484940484    12  12  12  2
-0.08545681495768254    12  12  12  8
0.4511480104202056    12  12  12  12
0.07738085910625155    13  1  1  1
0.05656286616202547    13  1  2  2
0.04753840315191534    13  1  3  3
0.04753840315191536    13  1  4  4
0.02243740744309932    13  1  5  1
0.06851691942116436    13  1  5  5
0.04561946852098507    13  1  6  6
0.04561946852098515    13  1  7  7
0.01498758785926301    13  1  8  2
0.03908066158926337    13  1  8  8
-0.009116806910347776    13  1  9  1
-0.03927823070175732    13  1  9  5
0.04684982826587425    13  1  9  9
0.0407188304748303    13  1  10  4
0.04046998575887909    13  1  10  10
0.04071883047483028    13  1  11  3
0.04046998575887899    13  1  11  11
0.0103533370140656    13  1  12  2
-0.03166124344108592    13  1  12  8
0.07528343784659058    13  1  12  12
0.04350467695360569    13  1  13  1
0.03919334077071191    13  2  2  1
-0.03676083556673957    13  2  5  2
0.034285479388928    13  2  6  3
0.03428547938892808    13  2  7  4
0.01461840861245647    13  2  8  1
0.02163922645860538    13  2  8  5
0.02229140534612003    13  2  9  2
0.003613696971202183    13  2  9  8
0.02786793934743228    13  2  10  7
0.02786793934743223    13  2  11  6
3.603241402647599e-05    13  2  12  1
-0.04638994400771592    13  2  12  5
0.04208300108347301    13  2  12  9
0.02669843598287632    13  2  13  2
-0.01602689102141662    13  3  3  1
-0.0008273109265046316    13  3  5  3
-0.01096820821727088    13  3  6  2
-0.003050378427304597    13  3  8  6
-0.002654136678156357    13  3  9  3
0.01081379630624474    13  3  11  1
-0.002730676977427547    13  3  11  5
0.00130867773410274    13  3  11  9
0.007892995750499825    13  3  12  6
0.02563965608152215    13  3  13  3
-0.01602689102141663    13  4  4  1
-0.0008273109265046333    13  4  5  4
-0.01096820821727087    13  4  7  2
-0.003050378427304593    13  4  8  7
-0.002654136678156358    13  4  9  4
0.01081379630624475    13  4  10  1
-0.00273067697742754    13  4  10  5
0.001308677734102751    13  4  10  9
0.007892995750499825    13  4  12  7
0.02563965608152216    13  4  13  4
0.02313426011654449    13  5  1  1
-0.01763522412383223    13  5  2  2
0.005081435568067413    13  5  3  3
0.00508143556806743    13  5  4  4
0.03392159971453133    13  5  5  1
-0.005208485945690291    13  5  5  5
-0.003195403805226342    13  5  6  6
-0.003195403805226403    13  5  7  7
0.01327911392579695    13  5  8  2
0.003337820739562371    13  5  8  8
-0.01829751658119951    13  5  9  1
-0.001936560039573852    13  5  9  5
-0.007281406097400428    13  5  9  9
0.003337308210997625    13  5  10  4
0.003192373775519667    13  5  10  10
0.003337308210997622    13  5  11  3
0.003192373775519682    13  5  11  11
-0.02682010087267339    13  5  12  2
-0.0100017433222655    13  5  12  8
-0.009103921715297256    13  5  12  12
0.009847866745109237    13  5  13  1
0.02436820842067525    13  5  13  5
0.001187793868070595    13  6  3  2
0.001312541061252639    13  6  6  1
0.000968957588821265    13  6  6  5
0.001722016302631356    13  6  8  3
0.004452890765829296    13  6  9  6
0.00921970901575864    13  6  11  2
0.003172783013337101    13  6  11  8
0.00267019946617444    13  6  12  3
-0.002908231124462982    13  6  12  11
0.01080157064250918    13  6  13  6
0.001187793868070629    13  7  4  2
0.001312541061252657    13  7  7  1
0.0009689575888212633    13  7  7  5
0.001722016302631362    13  7  8  4
0.004452890765829297    13  7  9  7
0.009219709015758647    13  7  10  2
0.003172783013337112    13  7  10  8
0.00267019946617444    13  7  12  4
-0.002908231124462977    13  7  12  10
0.01080157064250917    13  7  13  7
0.01297076610123769    13  8  2  1
-0.0003261176111440809    13  8  5  2
0.01263469269128639    13  8  6  3
0.01263469269128633    13  8  7  4
0.01322235422554946    13  8  8  1
0.008820707478190117    13  8  8  5
0.00179017615210581    13  8  9  2
-0.002087422793747633    13  8  9  8
0.01282723367626873    13  8  10  7
0.01282723367626863    13  8  11  6
-0.01243353098381771    13  8  12  1
-0.01288213046890885    13  8  12  5
-1.199561283637962e-15    13  8  12  8
0.0139703754270972    13  8  12  9
0.008091886221453109    13  8  13  2
0.01012180464621647    13  8  13  8
-0.03222001541619507    13  9  1  1
0.009641573320140708    13  9  2  2
-0.01655668573794022    13  9  3  3
-0.01655668573794009    13  9  4  4
-0.03374632574520621    13  9  5  1
-0.001309188822251109    13  9  5  5
-0.00235374082411129    13  9  6  6
-0.002353740824111219    13  9  7  7
-0.01525803052433654    13  9  8  2
-0.005044293646781542    13  9  8  8
0.01276585663372674    13  9  9  1
0.004392633806624282    13  9  9  5
0.006189353934423053    13  9  9  9
-0.0001145673807710743    13  9  10  4
-0.01091803098747394    13  9  10  10
-0.000114567380771089    13  9  11  3
-0.01091803098747403    13  9  11  11
0.02231505163683631    13  9  12  2
0.0152155472632434    13  9  12  8
0.004022708949186285    13  9  12  12
-0.002681614746830437    13  9  13  1
-0.01699399889237522    13  9  13  5
0.02051270334707529    13  9  13  9
0.04778261590175945    13  10  4  1
-0.001487165947693149    13  10  5  4
0.04124759574329459    13  10  7  2
0.01517157419141585    13  10  8  7
0.008773780336562112    13  10  9  4
0.006898999096032661    13  10  10  1
0.004501012595771263    13  10  10  5
0.005281058697551163    13  10  10  9
-0.01211092006510731    13  10  12  7
-0.02130160653559193    13  10  13  4
0.04442518123877498    13  10  13  10
0.04778261590175945    13  11  3  1
-0.001487165947693145    13  11  5  3
0.04124759574329456    13  11  6  2
0.01517157419141584    13  11  8  6
0.008773780336562105    13  11  9  3
0.006898999096032654    13  11  11  1
0.004501012595771283    13  11  11  5
0.005281058697551159    13  11  11  9
-0.01211092006510732    13  11  12  6
-0.02130160653559192    13  11  13  3
0.04442518123877495    13  11  13  11
0.02609597200630479    13  12  2  1
-0.04696488562586228    13  12  5  2
0.02533767801752575    13  12  6  3
0.02533767801752572    13  12  7  4
-0.008330547942934556    13  12  8  1
0.01595384957660466    13  12  8  5
0.01554550479724518    13  12  9  2
0.02287684996160007    13  12  9  8
0.001113622896828532    13  12  10  7
0.001113622896828437    13  12  11  6
0.01925399353665397    13  12  12  1
-0.02124845979089482    13  12  12  5
0.0306744696009859    13  12  12  9
0.009815466384974755    13  12  13  2
-0.008077316526524469    13  12  13  8
0.02858251040435197    13  12  13  12
0.4139958168597666    13  13  1  1
0.3576295113978348    13  13  2  2
0.3775234176288049    13  13  3  3
0.3775234176288053    13  13  4  4
0.04871170951599799    13  13  5  1
0.3604048668703952    13  13  5  5
0.3520161222711764    13  13  6  6
0.3520161222711767    13  13  7  7
0.04930518435169805    13  13  8  2
0.2974157557035998    13  13  8  8
0.001571228266135272    13  13  9  1
-0.0705050553970711    13  13  9  5
0.3065592493147515    13  13  9  9
0.0514083939006447    13  13  10  4
0.3418853851846542    13  13  10  10
0.05140839390064457    13  13  11  3
0.3418853851846537    13  13  11  11
0.009438490111111357    13  13  12  2
-0.07840186373688163    13  13  12  8
0.3588072831006506    13  13  12  12
0.03429739399445436    13  13  13  1
0.006823272102773589    13  13  13  5
-0.02281564360575554    13  13  13  9
0.3655863784422091    13  13  13  13
-0.01862765113570536    14  1  4  2
-0.01913389569122933    14  1  7  1
0.002652648542789217    14  1  7  5
-0.01303420994833832    14  1  8  4
-0.007444722639703357    14  1  9  7
-0.0152812173241985    14  1  10  2
-0.00971521916387837    14  1  10  8
0.004829589626739525    14  1  12  4
0.004482299519105597    14  1  12  10
-0.008496350114267972    14  1  13  7
0.01686520776990537    14  1  14  1
-0.02056313404040534    14  2  4  1
0.0009638513017687925    14  2  5  4
-0.01902186592801753    14  2  7  2
-0.01210926631376587    14  2  8  7
-0.008829080627930853    14  2  9  4
-0.01669536576254358    14  2  10  1
0.003905888799313882    14  2  10  5
-0.003844890484488485    14  2  10  9
-0.001613331764576837    14  2  12  7
-0.008727943266621956    14  2  13  4
-0.007928859658930372    14  2  13  10
0.01872622241144691    14  2  14  2
-0.004154036501494767    14  3  6  4
-0.004154036501494768    14  3  7  3
-0.005823389655790777    14  3  10  6
-0.005823389655790777    14  3  11  7
0.005844890726608491    14  3  14  3
-0.05217077194853507    14  4  2  1
0.02889484055258256    14  4  5  2
-0.0479915312077329    14  4  6  3
-0.05629960421072247    14  4  7  4
-0.03252330080694762    14  4  8  1
-0.01971358535095738    14  4  8  5
-0.02801960057686875    14  4  9  2
0.003261398231313038    14  4  9  8
-0.04926369271065935    14  4  10  7
-0.03761691339907773    14  4  11  6
0.01359526566836792    14  4  12  1
0.0518028281361468    14  4  12  5
-0.04195224263043192    14  4  12  9
-0.02850770941557393    14  4  13  2
-0.01333792377038045    14  4  13  8
-0.001884929766969846    14  4  13  12
0.05087423871970555    14  4  14  4
-0.0006762132930671038    14  5  4  2
-0.002279885634161534    14  5  7  1
-0.001834287320937354    14  5  7  5
-0.001002200498332391    14  5  8  4
0.007759929420206579    14  5  9  7
0.004715547637836983    14  5  10  2
-0.004192144652775187    14  5  10  8
0.007516103270823093    14  5  12  4
0.003004856633292764    14  5  12  10
0.004105845916697223    14  5  13  7
-0.001577835076424208    14  5  14  1
0.008391284264634721    14  5  14  5
-0.00366287462119567    14  6  4  3
-0.003101783343289597    14  6  7  6
-0.00635483603567766    14  6  10  3
-0.00635483603567766    14  6  11  4
-0.001751466020383389    14  6  11  10
0.007048802015125028    14  6  14  6
-0.1099504372838928    14  7  1  1
-0.08957620747335159    14  7  2  2
-0.08517624043921035    14  7  3  3
-0.09250198968160184    14  7  4  4
-0.02013547901876923    14  7  5  1
-0.08441923198736889    14  7  5  5
-0.07789759893642104    14  7  6  6
-0.08410116562300023    14  7  7  7
-0.03066619138287072    14  7  8  2
-0.04996326651970451    14  7  8  8
-0.005526591894819203    14  7  9  1
0.05110767924083188    14  7  9  5
-0.0598202165723744    14  7  9  9
-0.06081985979872588    14  7  10  4
-0.0748692380607381    14  7  10  10
-0.0481101877273705    14  7  11  3
-0.07136630601997121    14  7  11  11
-0.0149319835697212    14  7  12  2
0.04450260828433485    14  7  12  8
-0.09751994236586378    14  7  12  12
-0.03830674017425324    14  7  13  1
-0.0001433456314422423    14  7  13  5
0.002299106662245694    14  7  13  9
-0.06429364851508526    14  7  13  13
0.0664793734639801    14  7  14  7
-0.02545494144735173    14  8  4  1
0.001428999078294147    14  8  5  4
-0.02389215859874743    14  8  7  2
-0.006374405526384476    14  8  8  7
-0.0009982613482513486    14  8  9  4
-0.01042568538474642    14  8  10  1
-0.005542400756189055    14  8  10  5
-0.006930861403138346    14  8  10  9
0.008828526357380762    14  8  12  7
0.001235634404184619    14  8  13  4
-0.01628626027631543    14  8  13  10
0.006927881956907783    14  8  14  2
0.01590548691951601    14  8  14  8
-0.01859261641712399    14  9  4  2
-0.01548463058661215    14  9  7  1
0.01620556742444211    14  9  7  5
-0.0009567789207676802    14  9  8  4
-0.001626421426425235    14  9  9  7
-0.004417857066877557    14  9  10  2
-0.007411300959194799    14  9  10  8
-0.001109476963361885    14  9  12  4
-0.009728848084672106    14  9  12  10
0.001016999242329915    14  9  13  7
0.003723220703043432    14  9  14  1
0.0005494010909220987    14  9  14  5
0.01733563476569379    14  9  14  9
-0.09655243561568086    14  10  2  1
0.07526248822962343    14  10  5  2
-0.09458801494699015    14  10  6  3
-0.1126146283773827    14  10  7  4
-0.04072711404700231    14  10  8  1
-0.05549502108338957    14  10  8  5
-0.03015074616695758    14  10  9  2
-0.03449618642047796    14  10  9  8
-0.04497630877043784    14  10  10  7
-0.04007044524337255    14  10  11  6
0.01948994729293048    14  10  12  1
0.07145000328937394    14  10  12  5
-0.08948011542385038    14  10  12  9
-0.03278076762941643    14  10  13  2
-0.01525191393479602    14  10  13  8
-0.02019851124045177    14  10  13  12
0.0506021790768143    14  10  14  4