 &FCI NORB=26,NELEC=8,MS2=0,
  ORBSYM=1,3,2,5,1,7,6,5,1,2,3,1,6,7,5,4,1,5,3,2,8,5,1,7,6,5,
  ISYM=1,
 &END
0.734098662978196    1  1  1  1
0.1069232120610918    2  1  2  1
0.594783623101932    2  2  1  1
0.5503725579700394    2  2  2  2
0.1069232120610919    3  1  3  1
0.02408798535805232    3  2  3  2
0.5947836231019323    3  3  1  1
0.5021965872539348    3  3  2  2
0.5503725579700397    3  3  3  3
0.04184614931417659    4  1  4  1
0.03092363926052261    4  2  4  2
0.03092363926052262    4  3  4  3
0.4560982925539655    4  4  1  1
0.434854605887676    4  4  2  2
0.4348546058876762    4  4  3  3
0.4543143922273289    4  4  4  4
0.1368258269208147    5  1  1  1
0.07261699080604986    5  1  2  2
0.07261699080604996    5  1  3  3
0.01122115930600126    5  1  4  4
0.06355892900137132    5  1  5  1
-0.001882953669275354    5  2  2  1
0.01825105912405516    5  2  5  2
-0.001882953669275331    5  3  3  1
0.01825105912405516    5  3  5  3
-0.07086551133514733    5  4  4  1
0.1572274945271432    5  4  5  4
0.4970138692189569    5  5  1  1
0.4443000880519434    5  5  2  2
0.4443000880519435    5  5  3  3
0.4479849552467323    5  5  4  4
0.03972792900892143    5  5  5  1
0.4601833302683611    5  5  5  5
0.02286845654409633    6  1  4  2
0.0187835238929599    6  1  6  1
0.05278440903422598    6  2  4  1
-0.08690232988734486    6  2  5  4
0.07836796838397518    6  2  6  2
0.008647995139435916    6  3  6  3
0.05321062271286201    6  4  2  1
-0.02226719149848706    6  4  5  2
0.05430563730736264    6  4  6  4
-0.0245520762106106    6  5  4  2
-0.01601569997514777    6  5  6  1
0.02802987085194312    6  5  6  5
0.4115257942590559    6  6  1  1
0.405476594518523    6  6  2  2
0.3786769273203557    6  6  3  3
0.3752958545445407    6  6  4  4
0.0180627139201184    6  6  5  1
0.3715201656607728    6  6  5  5
0.3543693497773135    6  6  6  6
0.0228684565440965    7  1  4  3
0.01878352389296017    7  1  7  1
0.008647995139435972    7  2  6  3
0.008647995139436022    7  2  7  2
0.05278440903422638    7  3  4  1
-0.08690232988734545    7  3  5  4
0.06107197810510381    7  3  6  2
0.07836796838397629    7  3  7  3
0.05321062271286233    7  4  3  1
-0.02226719149848716    7  4  5  3
0.05430563730736319    7  4  7  4
-0.02455207621061073    7  5  4  3
-0.01601569997514793    7  5  7  1
0.02802987085194334    7  5  7  5
0.01339983359908371    7  6  3  2
0.01413115507745853    7  6  7  6
0.4115257942590586    7  7  1  1
0.3786769273203576    7  7  2  2
0.4054765945185254    7  7  3  3
0.3752958545445428    7  7  4  4
0.01806271392011875    7  7  5  1
0.3715201656607747    7  7  5  5
0.3261070396223975    7  7  6  6
0.3543693497773164    7  7  7  7
0.01738463437843405    8  1  4  1
-0.02276025895746778    8  1  5  4
0.02197786194192049    8  1  6  2
0.02197786194192063    8  1  7  3
0.009197103030522732    8  1  8  1
0.01335592592552236    8  2  4  2
0.0103133412128045    8  2  6  1
-0.007341450430566453    8  2  6  5
0.007258882497702481    8  2  8  2
0.01335592592552238    8  3  4  3
0.01031334121280462    8  3  7  1
-0.007341450430566387    8  3  7  5
0.007258882497702495    8  3  8  3
0.09027356203622773    8  4  1  1
0.07941553849170406    8  4  2  2
0.07941553849170471    8  4  3  3
0.06443279918835133    8  4  4  4
0.01198842145055121    8  4  5  1
0.06090661012450638    8  4  5  5
0.04595205919575479    8  4  6  6
0.04595205919575749    8  4  7  7
0.03347222712162291    8  4  8  4
-0.005282610091918506    8  5  4  1
0.002237665844894612    8  5  5  4
-0.005339105214144381    8  5  6  2
-0.005339105214144753    8  5  7  3
-0.007205090756333014    8  5  8  1
-2.968518443210999e-15    8  5  8  4
0.02359766941661488    8  5  8  5
0.01660679410500944    8  6  2  1
-0.002042363977609728    8  6  5  2
0.007070935672329523    8  6  6  4
0.01127347020303927    8  6  8  6
0.01660679410500952    8  7  3  1
-0.002042363977609779    8  7  5  3
0.007070935672330279    8  7  7  4
0.0112734702030393    8  7  8  7
0.2852273649778351    8  8  1  1
0.2780715793068281    8  8  2  2
0.2780715793068353    8  8  3  3
2.599022342827939e-15    8  8  4  1
0.2993858537602288    8  8  4  4
-0.0001006011521285005    8  8  5  1
4.600052977421498e-15    8  8  5  4
0.3008709695739419    8  8  5  5
3.048532563540429e-15    8  8  6  2
0.2677301180921373    8  8  6  6
1.562850326583543e-15    8  8  7  3
0.2677301180921673    8  8  7  7
4.658206871448189e-15    8  8  8  1
0.001702573184160469    8  8  8  4
-4.034674070535482e-14    8  8  8  5
0.2881743353546251    8  8  8  8
-0.07157900755381882    9  1  1  1
-0.02956184709490258    9  1  2  2
-0.02956184709490258    9  1  3  3
-0.01212244439303046    9  1  4  4
-0.03658246678830375    9  1  5  1
-0.03264569278239502    9  1  5  5
-0.0087717926592586    9  1  6  6
-0.008771792659258851    9  1  7  7
-0.002862468394516174    9  1  8  4
-0.008498691984343229    9  1  8  8
0.02896852812185056    9  1  9  1
0.01833742897377795    9  2  2  1
-0.009554863787226709    9  2  5  2
0.01658948274027124    9  2  6  4
0.005898410299420182    9  2  8  6
0.01398017348419373    9  2  9  2
0.01833742897377793    9  3  3  1
-0.009554863787226706    9  3  5  3
0.0165894827402713    9  3  7  4
0.005898410299420235    9  3  8  7
0.01398017348419372    9  3  9  3
0.008509936385443487    9  4  4  1
-0.006774789605554458    9  4  5  4
0.01046304522444258    9  4  6  2
0.0104630452244427    9  4  7  3
0.008086855567247614    9  4  8  1
-0.01977410156546138    9  4  8  5
4.063860793018792e-15    9  4  8  8
0.01814405402846393    9  4  9  4
-0.1307971365396669    9  5  1  1
-0.09397208748049754    9  5  2  2
-0.09397208748049754    9  5  3  3
-0.05763768573990317    9  5  4  4
-0.03764848370672604    9  5  5  1
-0.0679986755258026    9  5  5  5
-0.0445407544033801    9  5  6  6
-0.04454075440338079    9  5  7  7
-0.03527865024192706    9  5  8  4
0.002738490139510871    9  5  8  8
0.01862195996720295    9  5  9  1
0.0498343799895918    9  5  9  5
0.004382975547474909    9  6  4  2
0.002813053636525192    9  6  6  1
0.0005950140960642867    9  6  6  5
0.004519887713368615    9  6  8  2
0.007625285485359515    9  6  9  6
0.004382975547474997    9  7  4  3
0.00281305363652527    9  7  7  1
0.0005950140960641543    9  7  7  5
0.004519887713368633    9  7  8  3
0.007625285485359481    9  7  9  7
0.03590280987382059    9  8  4  1
-0.08624698466751188    9  8  5  4
-1.236857838371463e-15    9  8  5  5
0.04639502746744914    9  8  6  2
-1.413799632921098e-15    9  8  6  6
0.04639502746744939    9  8  7  3
-1.311450947838466e-15    9  8  7  7
0.005724946069866053    9  8  8  1
0.02767591510739805    9  8  8  5
-0.01773610148615903    9  8  9  4
0.09011212891180891    9  8  9  8
0.3858874857656618    9  9  1  1
0.3527091518449128    9  9  2  2
0.3527091518449128    9  9  3  3
0.3359012774721151    9  9  4  4
0.02924852365527653    9  9  5  1
0.3464755015589539    9  9  5  5
0.3047872817085056    9  9  6  6
0.3047872817085064    9  9  7  7
0.0242619953968214    9  9  8  4
0.278244471097914    9  9  8  8
-0.01853024046593195    9  9  9  1
-0.03172241662305465    9  9  9  5
-1.102958870069504e-15    9  9  9  8
0.3060495558626431    9  9  9  9
-0.04047642848254163    10  1  3  1
-0.008508851632532063    10  1  5  3
-0.01005630423567362    10  1  7  4
-0.00751707869315667    10  1  8  7
0.002152860192281647    10  1  9  3
0.02617191419771031    10  1  10  1
-0.004878330126130277    10  2  3  2
0.0008494585067113382    10  2  7  6
0.006729267048817695    10  2  10  2
-0.1473652930876779    10  3  1  1
-0.1002191828394163    10  3  2  2
-0.109975843091677    10  3  3  3
-0.0682141629583327    10  3  4  4
-0.04119784302607597    10  3  5  1
-0.07946477963410202    10  3  5  5
-0.04930490957114202    10  3  6  6
-0.04760599255772021    10  3  7  7
-0.02802782047016322    10  3  8  4
-0.0224062346608346    10  3  8  8
0.02547479525162832    10  3  9  1
0.03918313548225052    10  3  9  5
-0.04139256206814975    10  3  9  9
0.06324510648860522    10  3  10  3
-0.002118140353556803    10  4  4  3
-0.001510037889154943    10  4  7  1
-0.004934465038293467    10  4  7  5
-0.003683375754919608    10  4  8  3
-0.003812381519268643    10  4  9  7
0.008364837584518049    10  4  10  4
-0.02663391330277003    10  5  3  1
0.0007807279021048221    10  5  5  3
-0.01717658111650259    10  5  7  4
0.001785127208835398    10  5  8  7
-0.003224229870945128    10  5  9  3
0.006518175166419947    10  5  10  1
0.01432897015128611    10  5  10  5
0.001020104874350969    10  6  6  3
0.001020104874350945    10  6  7  2
0.00539047288771079    10  6  10  6
0.0005547174891142859    10  7  4  1
-0.01480600219740172    10  7  5  4
0.002913351042936294    10  7  6  2
0.004953560791638002    10  7  7  3
-0.004980596772305217    10  7  8  1
0.0132706636231508    10  7  8  5
-0.01119023810399405    10  7  9  4
0.02284118608396422    10  7  9  8
0.03048686701083306    10  7  10  7
-0.008161341252335792    10  8  4  3
-0.00614237353201557    10  8  7  1
0.008267017289984782    10  8  7  5
-0.002100355465960195    10  8  8  3
0.003105325257754527    10  8  9  7
-0.0004732617169579329    10  8  10  4
0.005477592920926345    10  8  10  8
0.02053390592750959    10  9  3  1
0.002294968295412815    10  9  5  3
0.005513133011866136    10  9  7  4
0.00525292695692065    10  9  8  7
0.007298355828535062    10  9  9  3
-0.004159197231679667    10  9  10  1
-0.007145710695296307    10  9  10  5
0.0141349892301793    10  9  10  9
0.4279919356606997    10  10  1  1
0.3779947594876717    10  10  2  2
0.4054036437666083    10  10  3  3
0.3421067559893837    10  10  4  4
0.03937668749746186    10  10  5  1
0.3481174882789628    10  10  5  5
0.3106357467850552    10  10  6  6
0.3337229402364852    10  10  7  7
0.0449857309267644    10  10  8  4
0.2464197173789147    10  10  8  8
-0.01563880913724324    10  10  9  1
-0.0548191178801057    10  10  9  5
0.2982433917491196    10  10  9  9
-0.05000108624100326    10  10  10  3
0.3440223938829468    10  10  10  10
-0.04047642848254168    11  1  2  1
-0.008508851632532045    11  1  5  2
-0.01005630423567354    11  1  6  4
-0.007517078693156624    11  1  8  6
0.002152860192281628    11  1  9  2
0.02617191419771035    11  1  11  1
-0.1473652930876781    11  2  1  1
-0.1099758430916772    11  2  2  2
-0.1002191828394166    11  2  3  3
-0.06821416295833288    11  2  4  4
-0.04119784302607598    11  2  5  1
-0.0794647796341022    11  2  5  5
-0.04760599255771945    11  2  6  6
-0.0493049095711429    11  2  7  7
-0.02802782047016326    11  2  8  4
-0.02240623466083469    11  2  8  8
0.02547479525162833    11  2  9  1
0.03918313548225054    11  2  9  5
-0.04139256206814988    11  2  9  9
0.04978657239096988    11  2  10  3
-0.05290211793898483    11  2  10  10
0.06324510648860532    11  2  11  2
-0.004878330126130307    11  3  3  2
0.0008494585067113134    11  3  7  6
0.006729267048817699    11  3  10  2
0.0067292670488177    11  3  11  3
-0.002118140353556852    11  4  4  2
-0.001510037889154931    11  4  6  1
-0.004934465038293448    11  4  6  5
-0.003683375754919632    11  4  8  2
-0.003812381519268652    11  4  9  6
0.008364837584518045    11  4  11  4
-0.02663391330276996    11  5  2  1
0.0007807279021047972    11  5  5  2
-0.01717658111650252    11  5  6  4
0.001785127208835479    11  5  8  6
-0.003224229870945115    11  5  9  2
0.006518175166419954    11  5  11  1
0.01432897015128607    11  5  11  5
0.0005547174891144998    11  6  4  1
-0.01480600219740205    11  6  5  4
0.004953560791638481    11  6  6  2
0.002913351042936448    11  6  7  3
-0.004980596772305122    11  6  8  1
0.01327066362315079    11  6  8  5
-0.01119023810399401    11  6  9  4
0.02284118608396444    11  6  9  8
0.01970592123541151    11  6  10  7
0.03048686701083296    11  6  11  6
0.001020104874350913    11  7  6  3
0.001020104874350888    11  7  7  2
0.005390472887710776    11  7  10  6
0.005390472887710757    11  7  11  7
-0.008161341252335851    11  8  4  2
-0.006142373532015452    11  8  6  1
0.008267017289984864    11  8  6  5
-0.002100355465960236    11  8  8  2
0.003105325257754568    11  8  9  6
-0.0004732617169579864    11  8  11  4
0.005477592920925491    11  8  11  8
0.02053390592750959    11  9  2  1
0.002294968295412814    11  9  5  2
0.005513133011866094    11  9  6  4
0.005252926956920641    11  9  8  6
0.007298355828535067    11  9  9  2
-0.004159197231679672    11  9  11  1
-0.007145710695296319    11  9  11  5
0.01413498923017928    11  9  11  9
0.01370444213946826    11  10  3  2
0.01154359672571437    11  10  7  6
0.001450515848990701    11  10  10  2
0.001450515848990678    11  10  11  3
0.01518725212192913    11  10  11  10
0.4279919356606999    11  11  1  1
0.4054036437666083    11  11  2  2
0.3779947594876717    11  11  3  3
0.3421067559893837    11  11  4  4
0.03937668749746193    11  11  5  1
0.3481174882789629    11  11  5  5
0.3337229402364838    11  11  6  6
0.3106357467850567    11  11  7  7
0.04498573092676442    11  11  8  4
0.2464197173789147    11  11  8  8
-0.01563880913724328    11  11  9  1
-0.05481911788010575    11  11  9  5
0.2982433917491195    11  11  9  9
-0.05290211793898478    11  11  10  3
0.3136478896390887    11  11  10  10
-0.05000108624100345    11  11  11  2
0.3440223938829468    11  11  11  11
0.0724150951121753    12  1  1  1
0.04936576205277993    12  1  2  2
0.04936576205277996    12  1  3  3
0.04537810436623208    12  1  4  4
0.01838915739273888    12  1  5  1
0.05107788960562252    12  1  5  5
0.02659167844805227    12  1  6  6
0.02659167844805278    12  1  7  7
0.01652362883304368    12  1  8  4
0.01489330360221066    12  1  8  8
-0.01608708171065739    12  1  9  1
-0.0214433177836995    12  1  9  5
0.02149003761270449    12  1  9  9
-0.03070646921581379    12  1  10  3
0.02422054097648024    12  1  10  10
-0.03070646921581377    12  1  11  2
0.02422054097648033    12  1  11  11
0.02121952115460583    12  1  12  1
-0.002831370475730665    12  2  2  1
0.001124670654480396    12  2  5  2
-0.002454634840715239    12  2  6  4
0.004107823173380602    12  2  8  6
-0.007575818465835898    12  2  9  2
-0.009974049494817557    12  2  11  1
0.007989206713868777    12  2  11  5
-0.00867913411966586    12  2  11  9
0.01847904900834589    12  2  12  2
-0.002831370475730616    12  3  3  1
0.001124670654480369    12  3  5  3
-0.002454634840715107    12  3  7  4
0.004107823173380615    12  3  8  7
-0.007575818465835874    12  3  9  3
-0.009974049494817554    12  3  10  1
0.007989206713868758    12  3  10  5
-0.008679134119665843    12  3  10  9
0.01847904900834587    12  3  12  3
0.03555753322493233    12  4  4  1
-0.070919690884357    12  4  5  4
0.0395397286806441    12  4  6  2
0.03953972868064447    12  4  7  3
0.01661154034138566    12  4  8  1
-0.0198833112414144    12  4  8  5
6.447912950097168e-15    12  4  8  8
0.01934535845418896    12  4  9  4
0.01837147029829781    12  4  9  8
-0.01505000956975605    12  4  10  7
-0.01505000956975592    12  4  11  6
0.05749293101274994    12  4  12  4
-0.04971722636528238    12  5  1  1
-0.05095101155302478    12  5  2  2
-0.0509510115530248    12  5  3  3
-0.07748592584954572    12  5  4  4
0.005943076744293085    12  5  5  1
-0.07165979632328046    12  5  5  5
-0.03693894010840437    12  5  6  6
-0.03693894010840486    12  5  7  7
-0.02709825938376766    12  5  8  4
-0.01977920654500187    12  5  8  8
0.00038166120159913    12  5  9  1
0.02242244105048803    12  5  9  5
-1.287083504011854e-15    12  5  9  8
-0.02464981045440459    12  5  9  9
0.02351341984497763    12  5  10  3
-0.02494320652976282    12  5  10  10
0.02351341984497769    12  5  11  2
-0.02494320652976291    12  5  11  11
-0.01964846468543224    12  5  12  1
0.04413519057992861    12  5  12  5
0.002711337408451771    12  6  4  2
0.0005259293774086826    12  6  6  1
0.003311619860487394    12  6  6  5
0.003771198138438319    12  6  8  2
0.003736788554970437    12  6  9  6
-0.00978472815439161    12  6  11  4
0.0005872340557847655    12  6  11  8
0.01410544405216827    12  6  12  6
0.002711337408451967    12  7  4  3
0.000525929377408887    12  7  7  1
0.003311619860487126    12  7  7  5
0.00377119813843839    12  7  8  3
0.003736788554970452    12  7  9  7
-0.009784728154391614    12  7  10  4
0.0005872340557845535    12  7  10  8
0.01410544405216829    12  7  12  7
1.030425744730223e-15    12  8  2  2
1.063385490773783e-15    12  8  3  3
0.02927850752346011    12  8  4  1
-0.06359922823856638    12  8  5  4
0.0359201540926596    12  8  6  2
3.910066714851723e-15    12  8  6  6
0.03592015409265953    12  8  7  3
0.008879532309835561    12  8  8  1
-1.002670169114595e-15    12  8  8  4
0.004760990429068902    12  8  8  5
2.702005286181475e-14    12  8  8  8
-0.0006917414230727024    12  8  9  4
0.04570917022065211    12  8  9  8
0.004990602039838423    12  8  10  7
0.004990602039838215    12  8  11  6
0.02887318529639113    12  8  12  4
1.105018854197226e-15    12  8  12  5
0.03126731903077912    12  8  12  8
-0.02103025024404349    12  9  1  1
-0.01527540623420295    12  9  2  2
-0.01527540623420298    12  9  3  3
0.02139231732046143    12  9  4  4
-0.01225736146636036    12  9  5  1
0.01917162964150286    12  9  5  5
0.0009589126008546305    12  9  6  6
0.0009589126008549649    12  9  7  7
-0.00235546275745941    12  9  8  4
1.112757347203341e-15    12  9  8  5
0.0223098499069121    12  9  8  8
-0.003475562523130219    12  9  9  1
0.007741458573877493    12  9  9  5
0.002604763176071194    12  9  9  9
-0.006194820560204729    12  9  10  3
-0.01512567218617358    12  9  10  10
-0.006194820560204712    12  9  11  2
-0.0151256721861736    12  9  11  11
0.01018661278407171    12  9  12  1
-0.01783810457362539    12  9  12  5
0.02642345543172607    12  9  12  9
-0.04787308136811513    12  10  3  1
0.01399570797371926    12  10  5  3
-0.04010635873958943    12  10  7  4
-0.004077471025410733    12  10  8  7
-0.01819740344633706    12  10  9  3
0.005510092396884873    12  10  10  1
0.0187672407007899    12  10  10  5
-0.01522592714553554    12  10  10  9
0.01291866444358988    12  10  12  3
0.04557922857022909    12  10  12  10
-0.04787308136811513    12  11  2  1
0.01399570797371927    12  11  5  2
-0.04010635873958931    12  11  6  4
-0.004077471025410573    12  11  8  6
-0.01819740344633708    12  11  9  2
0.005510092396884931    12  11  11  1
0.01876724070078985    12  11  11  5
-0.01522592714553551    12  11  11  9
0.01291866444358989    12  11  12  2
0.04557922857022906    12  11  12  11
0.4331183447514147    12  12  1  1
0.4114372474095598    12  12  2  2
0.4114372474095601    12  12  3  3
0.3989474107168748    12  12  4  4
0.01998450798378755    12  12  5  1
0.3960171189987745    12  12  5  5
0.3468803105873561    12  12  6  6
0.3468803105873582    12  12  7  7
1.394758332266821e-15    12  12  8  1
0.05875759675302096    12  12  8  4
-1.552980698682135e-15    12  12  8  5
0.2693744200579755    12  12  8  8
-0.007089849117402854    12  12  9  1
-0.0600029241541735    12  12  9  5
-2.621546642961325e-15    12  12  9  8
0.3173429008808124    12  12  9  9
-0.0542037906810324    12  12  10  3
0.3372117922022855    12  12  10  10
-0.05420379068103245    12  12  11  2
0.3372117922022859    12  12  11  11
0.03121430396626992    12  12  12  1
-0.05705800707701326    12  12  12  5
1.4678471112195e-15    12  12  12  8
0.0007261817072123915    12  12  12  9
0.3780325780274608    12  12  12  12
-0.01987355703702116    13  1  4  3
-0.01703932733515024    13  1  7  1
0.008954624648275924    13  1  7  5
-0.0107511542886989    13  1  8  3
-0.003623811286642355    13  1  9  7
0.007021717586085369    13  1  10  4
0.005137949794595695    13  1  10  8
-0.007315549287178051    13  1  12  7
0.02021560971000514    13  1  13  1
-0.006301282463875747    13  2  6  3
-0.006301282463875808    13  2  7  2
0.003510102801804812    13  2  10  6
0.003510102801804854    13  2  11  7
0.008147907041884797    13  2  13  2
-0.04601232724341735    13  3  4  1
0.06648800380552666    13  3  5  4
-0.05161887268819455    13  3  6  2
-0.06422143761594672    13  3  7  3
-0.02303551477659896    13  3  8  1
0.01483539275810886    13  3  8  5
-3.867999670559286e-15    13  3  8  8
-0.01762002572458296    13  3  9  4
-0.02407950096107266    13  3  9  8
0.02046531932418286    13  3  10  7
0.01344511372057295    13  3  11  6
-0.04852624497771242    13  3  12  4
-0.02917301296986391    13  3  12  8
0.07317267182013087    13  3  13  3
-0.03349003620411061    13  4  3  1
0.01022632369183319    13  4  5  3
-0.0257503404120921    13  4  7  4
-0.0134268030514677    13  4  8  7
-0.00868199880701474    13  4  9  3
0.01494382059670254    13  4  10  1
0.0002792090915999286    13  4  10  5
-0.001719152148260492    13  4  10  9
-0.01180457703334722    13  4  12  3
0.01282655382776804    13  4  12  10
0.02804399495112811    13  4  13  4
0.01145187084063389    13  5  4  3
0.005289107969439269    13  5  7  1
-0.008487524380428171    13  5  7  5
0.006303959756991674    13  5  8  3
0.006049967901459232    13  5  9  7
-0.00564982740666061    13  5  10  4
-0.0005707375420447304    13  5  10  8
0.009683018488196578    13  5  12  7
-0.006697600648840497    13  5  13  1
0.01361219030095571    13  5  13  5
-0.006435363469035827    13  6  3  2
-0.001185141619503442    13  6  7  6
0.005136990189613171    13  6  10  2
0.005136990189613176    13  6  11  3
0.0005723381742454642    13  6  11  10
0.007241628216939615    13  6  13  6
-0.1466004268580882    13  7  1  1
-0.1152468755304032    13  7  2  2
-0.1281176024684751    13  7  3  3
-0.09919380752009413    13  7  4  4
-0.0246307943838785    13  7  5  1
-0.09965692519752158    13  7  5  5
-0.06678268868275791    13  7  6  6
-0.06915297192176634    13  7  7  7
-0.03892031200959581    13  7  8  4
-0.0277191159599371    13  7  8  8
0.01352000905160939    13  7  9  1
0.0426345469694061    13  7  9  5
-1.409645783347763e-15    13  7  9  8
-0.05025227100851828    13  7  9  9
0.05713290904361549    13  7  10  3
-0.06269448729833899    13  7  10  10
0.04685892866438909    13  7  11  2
-0.06383916364682984    13  7  11  11
-0.02971582128260431    13  7  12  1
0.03643815684764363    13  7  12  5
-0.00513276475734491    13  7  12  9
-0.07970575234272807    13  7  12  12
0.06971307271516486    13  7  13  7
-0.02817064233277844    13  8  3  1
0.01061657312877694    13  8  5  3
-0.02812601460742197    13  8  7  4
4.160021408171647e-05    13  8  8  7
-0.006626449896723263    13  8  9  3
0.007235684182776756    13  8  10  1
0.009189573878718507    13  8  10  5
0.0002486555589121524    13  8  10  9
-0.0008671146425553086    13  8  12  3
0.02116998345153841    13  8  12  10
0.01272403318294372    13  8  13  4
0.01906998991276727    13  8  13  8
-0.01003907024720748    13  9  4  3
-0.005872414492296353    13  9  7  1
0.01204001747458929    13  9  7  5
-0.002397181059115093    13  9  8  3
0.0023540722206414    13  9  9  7
-0.001210239155243464    13  9  10  4
0.005834809435129782    13  9  10  8
0.0006522858769860351    13  9  12  7
0.003236278265437036    13  9  13  1
-0.003529559949271109    13  9  13  5
0.008469241839958053    13  9  13  9
0.04197780919827828    13  10  4  1
-0.06874550314508915    13  10  5  4
0.05061659200784221    13  10  6  2
0.06260415861188477    13  10  7  3
0.0172187546868608    13  10  8  1
-0.0006532200654597681    13  10  8  5
8.650198612958349e-15    13  10  8  8
0.006296929745164494    13  10  9  4
0.04259186781079304    13  10  9  8
0.004721168743974873    13  10  10  7
0.002167499980792587    13  10  11  6
0.03201167608456858    13  10  12  4
0.03270749282426724    13  10  12  8
-0.05252323243544909    13  10  13  3
0.06033523671393728    13  10  13  10
0.005993783302021063    13  11  6  3
0.005993783302021095    13  11  7  2
0.001276834381591253    13  11  10  6
0.001276834381591189    13  11  11  7
-0.00429715474179659    13  11  13  2
0.006406725962326906    13  11  13  11
-0.02433679718297551    13  12  4  3
-0.0170850066009488    13  12  7  1
0.02184645040535478    13  12  7  5
-0.009328432903882597    13  12  8  3
-0.001402832059847313    13  12  9  7
0.0007688095565452463    13  12  10  4
0.008724307583403023    13  12  10  8
-0.001065560219741566    13  12  12  7
0.01414488853398426    13  12  13  1
-0.008596591303910706    13  12  13  5
0.01042460038907568    13  12  13  9
0.02422806305020979    13  12  13  12
0.4718278838412608    13  13  1  1
0.4193272031262317    13  13  2  2
0.4470669387076286    13  13  3  3
0.4000817714502979    13  13  4  4
0.03787888134715262    13  13  5  1
0.4012699381444552    13  13  5  5
0.3412896139779257    13  13  6  6
0.365011177585877    13  13  7  7
0.06183972952989126    13  13  8  4
0.2721717554198549    13  13  8  8
-0.02164891720574642    13  13  9  1
-0.06726573847706169    13  13  9  5
-1.398729222723549e-15    13  13  9  8
0.317565367148506    13  13  9  9
-0.08217511775742992    13  13  10  3
0.3534602721658507    13  13  10  10
-0.07654139937224527    13  13  11  2
0.3317252641017001    13  13  11  11
0.04484788707439601    13  13  12  1
-0.05423521661850492    13  13  12  5
1.154350053045317e-15    13  13  12  8
0.00723107143181426    13  13  12  9
0.3700564181463446    13  13  12  12
-0.09954991482804217    13  13  13  7
0.4055678743058581    13  13  13  13
-0.01987355703702134    14  1  4  2
-0.01703932733515023    14  1  6  1
0.008954624648275988    14  1  6  5
-0.01075115428869898    14  1  8  2
-0.003623811286642343    14  1  9  6
0.007021717586085408    14  1  11  4
0.005137949794595772    14  1  11  8
-0.007315549287177927    14  1  12  6
0.0202156097100054    14  1  14  1
-0.04601232724341774    14  2  4  1
0.06648800380552733    14  2  5  4
-0.06422143761594669    14  2  6  2
-0.05161887268819548    14  2  7  3
-0.02303551477659912    14  2  8  1
0.01483539275810889    14  2  8  5
-3.828534711480813e-15    14  2  8  8
-0.01762002572458303    14  2  9  4
-0.02407950096107303    14  2  9  8
0.0134451137205732    14  2  10  7
0.0204653193241825    14  2  11  6
-0.04852624497771271    14  2  12  4
-0.02917301296986418    14  2  12  8
0.05687685773636175    14  2  13  3
-0.04392892295185637    14  2  13  10
0.07317267182013175    14  2  14  2
-0.006301282463875824    14  3  6  3
-0.006301282463875884    14  3  7  2
0.0035101028018048    14  3  10  6
0.003510102801804841    14  3  11  7
0.008147907041884849    14  3  13  2
-0.004297154741796644    14  3  13  11
0.008147907041884899    14  3  14  3
-0.03349003620411104    14  4  2  1
0.01022632369183339    14  4  5  2
-0.02575034041209234    14  4  6  4
-0.01342680305146765    14  4  8  6
-0.008681998807014887    14  4  9  2
0.01494382059670264    14  4  11  1
0.0002792090916000439    14  4  11  5
-0.001719152148260532    14  4  11  9
-0.01180457703334718    14  4  12  2
0.0128265538277684    14  4  12  11
0.02804399495112854    14  4  14  4
0.01145187084063412    14  5  4  2
0.005289107969439352    14  5  6  1
-0.008487524380428314    14  5  6  5
0.00630395975699174    14  5  8  2
0.006049967901459191    14  5  9  6
-0.005649827406660589    14  5  11  4
-0.0005707375420447978    14  5  11  8
0.009683018488196462    14  5  12  6
-0.006697600648840623    14  5  14  1
0.01361219030095583    14  5  14  5
-0.1466004268580879    14  6  1  1
-0.128117602468475    14  6  2  2
-0.1152468755304028    14  6  3  3
-0.09919380752009425    14  6  4  4
-0.02463079438387835    14  6  5  1
-0.09965692519752153    14  6  5  5
-0.06915297192176487    14  6  6  6
-0.06678268868275854    14  6  7  7
-0.03892031200959568    14  6  8  4
-0.02771911595993725    14  6  8  8
0.01352000905160929    14  6  9  1
0.04263454696940592    14  6  9  5
-1.414833013116748e-15    14  6  9  8
-0.0502522710085185    14  6  9  9
0.04685892866438883    14  6  10  3
-0.06383916364682948    14  6  10  10
0.05713290904361525    14  6  11  2
-0.06269448729833949    14  6  11  11
-0.02971582128260418    14  6  12  1
0.03643815684764349    14  6  12  5
-0.005132764757344851    14  6  12  9
-0.07970575234272809    14  6  12  12
0.0552298162812864    14  6  13  7
-0.09202792412275511    14  6  13  13
0.06971307271516453    14  6  14  6
-0.006435363469036054    14  7  3  2
-0.001185141619503663    14  7  7  6
0.005136990189613179    14  7  10  2
0.005136990189613186    14  7  11  3
0.0005723381742452788    14  7  11  10
0.007241628216939655    14  7  13  6
0.00724162821693968    14  7  14  7
-0.02817064233277857    14  8  2  1
0.01061657312877694    14  8  5  2
-0.02812601460742219    14  8  6  4
4.1600214081722e-05    14  8  8  6
-0.006626449896723357    14  8  9  2
0.007235684182776768    14  8  11  1
0.009189573878718597    14  8  11  5
1.326168992329957e-15    14  8  11  8
0.0002486555589121415    14  8  11  9
-0.0008671146425552557    14  8  12  2
0.02116998345153813    14  8  12  11
0.01272403318294413    14  8  14  4
0.0190699899127661    14  8  14  8
-0.01003907024720748    14  9  4  2
-0.005872414492296343    14  9  6  1
0.0120400174745892    14  9  6  5
-0.002397181059115124    14  9  8  2
0.002354072220641404    14  9  9  6
-0.001210239155243403    14  9  11  4
0.00583480943512964    14  9  11  8
0.0006522858769860814    14  9  12  6
0.003236278265437107    14  9  14  1
-0.003529559949271252    14  9  14  5
0.008469241839958012    14  9  14  9
0.005993783302021039    14  10  6  3
0.005993783302021072    14  10  7  2
0.001276834381591215    14  10  10  6
0.001276834381591145    14  10  11  7
-0.004297154741796607    14  10  13  2
0.006406725962326884    14  10  13  11
-0.004297154741796657    14  10  14  3
0.006406725962326861    14  10  14  10
0.04197780919827831    14  11  4  1
-0.06874550314508908    14  11  5  4
0.06260415861188437    14  11  6  2
0.05061659200784255    14  11  7  3
0.01721875468686087    14  11  8  1
-0.0006532200654599047    14  11  8  5
8.618106228652778e-15    14  11  8  8
0.006296929745164611    14  11  9  4
0.04259186781079287    14  11  9  8
0.002167499980792265    14  11  10  7
0.004721168743974871    14  11  11  6
0.03201167608456876    14  11  12  4
0.03270749282426721    14  11  12  8
-0.04392892295185619    14  11  13  3
0.04752178478928334    14  11  13  10