 &FCI NORB=26,NELEC=8,MS2=0,
  ORBSYM=1,5,3,2,1,7,6,5,1,2,3,1,6,7,5,5,1,4,3,2,8,5,1,7,6,5,
  ISYM=1,
 &END
0.5904920111154525    1  1  1  1
0.08122307196870215    2  1  2  1
0.4322898894227491    2  2  1  1
0.4395878950600234    2  2  2  2
0.08072342234697173    3  1  3  1
0.03836742154755116    3  2  3  2
0.4908391705770959    3  3  1  1
0.4066639626634119    3  3  2  2
0.4595540185739314    3  3  3  3
0.0807234223469717    4  1  4  1
0.03836742154755115    4  2  4  2
0.01823318124622155    4  3  4  3
0.4908391705770956    4  4  1  1
0.4066639626634118    4  4  2  2
0.4230876560814882    4  4  3  3
0.459554018573931    4  4  4  4
0.1080857100249116    5  1  1  1
0.002446472246537989    5  1  2  2
0.0554355729279218    5  1  3  3
0.05543557292792175    5  1  4  4
0.06959526532474701    5  1  5  1
-0.08880357190473634    5  2  2  1
0.134175623034532    5  2  5  2
0.0006781185347149063    5  3  3  1
0.01684068439671601    5  3  5  3
0.0006781185347148959    5  4  4  1
0.016840684396716    5  4  5  4
0.4565736661802493    5  5  1  1
0.4293668321420208    5  5  2  2
0.4044839938582964    5  5  3  3
0.4044839938582963    5  5  4  4
0.0291418929257268    5  5  5  1
0.4428701237154182    5  5  5  5
0.03447590970460779    6  1  3  2
0.03263593055884699    6  1  6  1
0.05822144548318335    6  2  3  1
-0.0175970257195343    6  2  5  3
0.06200603757636811    6  2  6  2
0.09087719892722174    6  3  2  1
-0.09428465883317652    6  3  5  2
0.1173792317364875    6  3  6  3
0.01149392359627533    6  4  6  4
-0.02336852914282788    6  5  3  2
-0.01752637779068496    6  5  6  1
0.02374546411848961    6  5  6  5
0.4250660020936641    6  6  1  1
0.3956026521436343    6  6  2  2
0.4122566001224633    6  6  3  3
0.3829943370661997    6  6  4  4
0.02157842270473388    6  6  5  1
0.3853687432021182    6  6  5  5
0.3928036611482242    6  6  6  6
0.0344759097046077    7  1  4  2
0.03263593055884683    7  1  7  1
0.05822144548318324    7  2  4  1
-0.01759702571953427    7  2  5  4
0.06200603757636793    7  2  7  2
0.01149392359627531    7  3  6  4
0.01149392359627529    7  3  7  3
0.09087719892722153    7  4  2  1
-0.09428465883317634    7  4  5  2
0.09439138454393653    7  4  6  3
0.1173792317364869    7  4  7  4
-0.02336852914282787    7  5  4  2
-0.01752637779068493    7  5  7  1
0.02374546411848957    7  5  7  5
0.01463113152813173    7  6  4  3
0.01510184613896686    7  6  7  6
0.4250660020936631    7  7  1  1
0.3956026521436335    7  7  2  2
0.3829943370661992    7  7  3  3
0.4122566001224623    7  7  4  4
0.02157842270473372    7  7  5  1
0.3853687432021174    7  7  5  5
0.3625999688702897    7  7  6  6
0.3928036611482226    7  7  7  7
0.03447391980416676    8  1  2  1
-0.02040273349011267    8  1  5  2
0.04007420977522306    8  1  6  3
0.0400742097752229    8  1  7  4
0.02390424473518072    8  1  8  1
0.079740003549995    8  2  1  1
0.04491064795519831    8  2  2  2
0.06503971572066874    8  2  3  3
0.06503971572066874    8  2  4  4
0.02150981548931598    8  2  5  1
0.03946560392613827    8  2  5  5
0.04854328042715136    8  2  6  6
0.0485432804271512    8  2  7  7
0.02953773825819967    8  2  8  2
0.01621886971217827    8  3  3  2
0.01652389884464344    8  3  6  1
-0.003692044578380153    8  3  6  5
0.01129968902042998    8  3  8  3
0.01621886971217827    8  4  4  2
0.01652389884464336    8  4  7  1
-0.003692044578380142    8  4  7  5
0.01129968902042997    8  4  8  4
0.02422858290490378    8  5  2  1
-0.03698396171804896    8  5  5  2
0.02634016199214761    8  5  6  3
0.02634016199214777    8  5  7  4
0.002695524612804283    8  5  8  1
0.03160948259219036    8  5  8  5
0.0245604293999004    8  6  3  1
0.00160821074822994    8  6  5  3
0.01575983617507036    8  6  6  2
0.01359384514006183    8  6  8  6
0.02456042939990033    8  7  4  1
0.001608210748229966    8  7  5  4
0.01575983617507022    8  7  7  2
0.01359384514006181    8  7  8  7
0.3049794323657786    8  8  1  1
0.3029009219101196    8  8  2  2
0.2877466200244034    8  8  3  3
0.287746620024404    8  8  4  4
0.005316062302805386    8  8  5  1
0.3091182434612821    8  8  5  5
0.2840272585400769    8  8  6  6
0.2840272585400782    8  8  7  7
2.181286022032852e-15    8  8  8  1
0.001818539505863587    8  8  8  2
-2.255682619856092e-15    8  8  8  5
0.2884106771064232    8  8  8  8
-0.04786524630513501    9  1  1  1
-0.002748649670994855    9  1  2  2
-0.01449956114012451    9  1  3  3
-0.0144995611401245    9  1  4  4
-0.03378594921747557    9  1  5  1
-0.02452698504335555    9  1  5  5
-0.005962220394746314    9  1  6  6
-0.005962220394746273    9  1  7  7
-0.002145937141035035    9  1  8  2
-0.01125440790349756    9  1  8  8
0.02802823766043223    9  1  9  1
0.02063082531967935    9  2  2  1
-0.02021198629004619    9  2  5  2
0.0225236092737426    9  2  6  3
0.02252360927374251    9  2  7  4
0.01282583124624069    9  2  8  1
-0.01138623065132031    9  2  8  5
0.02058735687484999    9  2  9  2
0.01803710714035425    9  3  3  1
-0.005443978376990167    9  3  5  3
0.01715435104746616    9  3  6  2
0.008035391707937206    9  3  8  6
0.01279269984085729    9  3  9  3
0.01803710714035424    9  4  4  1
-0.00544397837699016    9  4  5  4
0.01715435104746613    9  4  7  2
0.0080353917079372    9  4  8  7
0.01279269984085729    9  4  9  4
-0.1215579460314147    9  5  1  1
-0.07086834764824532    9  5  2  2
-0.08565110440320649    9  5  3  3
-0.08565110440320638    9  5  4  4
-0.03738460910451902    9  5  5  1
-0.07931969133692719    9  5  5  5
-0.06516286420889365    9  5  6  6
-0.0651628642088932    9  5  7  7
-0.03557797457377004    9  5  8  2
-0.01041218961018524    9  5  8  8
0.01750700053333488    9  5  9  1
0.06001944101249849    9  5  9  5
0.007682145856952676    9  6  3  2
0.006081478817207472    9  6  6  1
-0.003202434374602325    9  6  6  5
0.005717542770701598    9  6  8  3
0.007671403943647868    9  6  9  6
0.007682145856952631    9  7  4  2
0.006081478817207432    9  7  7  1
-0.003202434374602253    9  7  7  5
0.005717542770701592    9  7  8  4
0.007671403943647865    9  7  9  7
0.04358671743914362    9  8  2  1
-0.07300363010940723    9  8  5  2
0.04928496662355457    9  8  6  3
0.04928496662355455    9  8  7  4
0.001779386875177134    9  8  8  1
0.04354676996414084    9  8  8  5
-5.095750210681871e-15    9  8  8  8
-0.008255878034796816    9  8  9  2
0.0776680945738393    9  8  9  8
0.3878328783965907    9  9  1  1
0.3481296681579863    9  9  2  2
0.3486067429073035    9  9  3  3
0.3486067429073032    9  9  4  4
0.03192110476355686    9  9  5  1
0.3608841055849821    9  9  5  5
0.3283925822398033    9  9  6  6
0.3283925822398029    9  9  7  7
0.02632508536875405    9  9  8  2
0.2879365914392963    9  9  8  8
-0.02015459172340574    9  9  9  1
-0.05082167122597622    9  9  9  5
0.3227704446954814    9  9  9  9
0.02837066563997381    10  1  4  1
0.005482803797138466    10  1  5  4
0.01609592785802522    10  1  7  2
0.0116065531822835    10  1  8  7
0.0001814759354480382    10  1  9  4
0.02159423408641203    10  1  10  1
0.01108082412999912    10  2  4  2
0.01064392922854408    10  2  7  1
-0.001951697282481861    10  2  7  5
0.00832071594824446    10  2  8  4
0.005510526050117957    10  2  9  7
0.01190714348615045    10  2  10  2
0.002821654945551628    10  3  4  3
0.001721888749434493    10  3  7  6
0.006754630268082931    10  3  10  3
0.1173525713852539    10  4  1  1
0.07777624933222912    10  4  2  2
0.08337541123692233    10  4  3  3
0.08901872112802549    10  4  4  4
0.02932636040760201    10  4  5  1
0.08205606766031324    10  4  5  5
0.06791836458311931    10  4  6  6
0.07136214208198781    10  4  7  7
0.02820720445586162    10  4  8  2
0.03318172733464596    10  4  8  8
-0.01716116394681011    10  4  9  1
-0.04495104789600898    10  4  9  5
0.05462963074143457    10  4  9  9
0.06204715464849695    10  4  10  4
0.01459558838603745    10  5  4  1
0.00408284952134865    10  5  5  4
0.007344328908820435    10  5  7  2
0.0002991655858461109    10  5  8  7
-0.00185970965784393    10  5  9  4
0.00380645449657833    10  5  10  1
0.009349401346478586    10  5  10  5
0.002180560760680487    10  6  6  4
0.002180560760680467    10  6  7  3
0.005432040793336914    10  6  10  6
0.02853419009751745    10  7  2  1
-0.01704492348298483    10  7  5  2
0.02788564875729578    10  7  6  3
0.03224677027865646    10  7  7  4
0.02140677681448846    10  7  8  1
-0.003441598975483171    10  7  8  5
0.01643820829843524    10  7  9  2
-0.006986962253836176    10  7  9  8
0.03867041644637212    10  7  10  7
0.0135115445585854    10  8  4  2
0.01293376279661324    10  8  7  1
-0.007737570952532444    10  8  7  5
0.004853070671183495    10  8  8  4
-0.00118820107655714    10  8  9  7
0.004512689057657188    10  8  10  2
0.008776161518203257    10  8  10  8
-0.01082938962661795    10  9  4  1
-0.008005392477878294    10  9  5  4
0.001288669129970333    10  9  7  2
-0.005558355504687448    10  9  8  7
-0.003223421612103505    10  9  9  4
-0.001808616141121099    10  9  10  1
-0.003956218909996851    10  9  10  5
0.01137704575683754    10  9  10  9
0.4088044337268762    10  10  1  1
0.3514816498885698    10  10  2  2
0.362361176636983    10  10  3  3
0.3879218683394201    10  10  4  4
0.03864514460232417    10  10  5  1
0.3501278687247033    10  10  5  5
0.3346514805447893    10  10  6  6
0.3571151870186782    10  10  7  7
0.04740888965191376    10  10  8  2
0.2624683338604539    10  10  8  8
-0.01152006787743313    10  10  9  1
-0.06486812260502348    10  10  9  5
0.3117054109521297    10  10  9  9
0.06094503426681453    10  10  10  4
0.3508357788465583    10  10  10  10
0.02837066563997375    11  1  3  1
0.005482803797138461    11  1  5  3
0.01609592785802523    11  1  6  2
0.01160655318228351    11  1  8  6
0.0001814759354480242    11  1  9  3
0.02159423408641199    11  1  11  1
0.01108082412999909    11  2  3  2
0.01064392922854411    11  2  6  1
-0.001951697282481867    11  2  6  5
0.008320715948244449    11  2  8  3
0.005510526050117959    11  2  9  6
0.01190714348615044    11  2  11  2
0.1173525713852537    11  3  1  1
0.07777624933222901    11  3  2  2
0.08901872112802543    11  3  3  3
0.08337541123692213    11  3  4  4
0.02932636040760198    11  3  5  1
0.08205606766031315    11  3  5  5
0.07136214208198818    11  3  6  6
0.0679183645831188    11  3  7  7
0.02820720445586159    11  3  8  2
0.03318172733464586    11  3  8  8
-0.01716116394681011    11  3  9  1
-0.04495104789600896    11  3  9  5
0.05462963074143446    11  3  9  9
0.04853789411233113    11  3  10  4
0.06151484295672041    11  3  10  10
0.06204715464849691    11  3  11  3
0.002821654945551604    11  4  4  3
0.001721888749434473    11  4  7  6
0.006754630268082929    11  4  10  3
0.006754630268082928    11  4  11  4
0.01459558838603744    11  5  3  1
0.004082849521348646    11  5  5  3
0.007344328908820431    11  5  6  2
0.0002991655858461303    11  5  8  6
-0.001859709657843932    11  5  9  3
0.003806454496578307    11  5  11  1
0.009349401346478579    11  5  11  5
0.02853419009751769    11  6  2  1
-0.01704492348298507    11  6  5  2
0.03224677027865696    11  6  6  3
0.02788564875729585    11  6  7  4
0.02140677681448856    11  6  8  1
-0.003441598975483089    11  6  8  5
0.01643820829843529    11  6  9  2
-0.006986962253836028    11  6  9  8
0.02780633485969842    11  6  10  7
0.03867041644637233    11  6  11  6
0.002180560760680445    11  7  6  4
0.002180560760680426    11  7  7  3
0.005432040793336908    11  7  10  6
0.005432040793336901    11  7  11  7
0.01351154455858538    11  8  3  2
0.01293376279661327    11  8  6  1
-0.007737570952532399    11  8  6  5
0.004853070671183495    11  8  8  3
-0.001188201076557121    11  8  9  6
0.00451268905765713    11  8  11  2
0.008776161518203079    11  8  11  8
-0.01082938962661798    11  9  3  1
-0.008005392477878294    11  9  5  3
0.001288669129970322    11  9  6  2
-0.005558355504687444    11  9  8  6
-0.003223421612103511    11  9  9  3
-0.001808616141121083    11  9  11  1
-0.003956218909996849    11  9  11  5
0.01137704575683755    11  9  11  9
0.01278034585121857    11  10  4  3
0.01123185323694475    11  10  7  6
-0.0002849043449529916    11  10  10  3
-0.0002849043449530089    11  10  11  4
0.01340343778728719    11  10  11  10
0.4088044337268761    11  11  1  1
0.3514816498885697    11  11  2  2
0.3879218683394201    11  11  3  3
0.3623611766369828    11  11  4  4
0.03864514460232411    11  11  5  1
0.3501278687247033    11  11  5  5
0.3571151870186789    11  11  6  6
0.3346514805447886    11  11  7  7
0.04740888965191373    11  11  8  2
0.2624683338604539    11  11  8  8
-0.01152006787743311    11  11  9  1
-0.06486812260502341    11  11  9  5
0.3117054109521297    11  11  9  9
0.06151484295672049    11  11  10  4
0.3240289032719839    11  11  10  10
0.0609450342668143    11  11  11  3
0.3508357788465583    11  11  11  11
0.07439685726518799    12  1  1  1
0.05523752308066308    12  1  2  2
0.04779627950746775    12  1  3  3
0.04779627950746764    12  1  4  4
0.01809001024993582    12  1  5  1
0.06356553086717079    12  1  5  5
0.04238963376356068    12  1  6  6
0.04238963376356037    12  1  7  7
0.01542273379967779    12  1  8  2
0.02229293187300776    12  1  8  8
-0.01790032662642407    12  1  9  1
-0.03418792573222912    12  1  9  5
0.03809350616332716    12  1  9  9
0.03751333583994062    12  1  10  4
0.03597798794871424    12  1  10  10
0.03751333583994059    12  1  11  3
0.0359779879487141    12  1  11  11
0.0328139453234443    12  1  12  1
0.04413384905026515    12  2  2  1
-0.0560818214282074    12  2  5  2
0.04318287957330592    12  2  6  3
0.04318287957330579    12  2  7  4
0.01875544705618632    12  2  8  1
0.003934478227848539    12  2  8  5
0.022183570925844    12  2  9  2
0.01147949221234419    12  2  9  8
0.02902123067198414    12  2  10  7
0.02902123067198423    12  2  11  6
0.04445151988855815    12  2  12  2
-0.01128134517915194    12  3  3  1
-0.000464248471149561    12  3  5  3
-0.006179257212107318    12  3  6  2
0.0002936555479263946    12  3  8  6
-0.008148158732731505    12  3  9  3
0.01019236612447816    12  3  11  1
-0.006564913735475767    12  3  11  5
0.008008956341134636    12  3  11  9
0.02239469135700854    12  3  12  3
-0.01128134517915198    12  4  4  1
-0.0004642484711495511    12  4  5  4
-0.006179257212107412    12  4  7  2
0.0002936555479263904    12  4  8  7
-0.008148158732731522    12  4  9  4
0.01019236612447815    12  4  10  1
-0.00656491373547578    12  4  10  5
0.00800895634113463    12  4  10  9
0.02239469135700855    12  4  12  4
-0.0165458049225251    12  5  1  1
-0.05455209127984336    12  5  2  2
-0.02648619245744979    12  5  3  3
-0.02648619245744979    12  5  4  4
0.02213284196847153    12  5  5  1
-0.04418031953926738    12  5  5  5
-0.03121048188712455    12  5  6  6
-0.03121048188712435    12  5  7  7
-0.008286925828862767    12  5  8  2
-0.01053876631897978    12  5  8  8
-0.01320333403577063    12  5  9  1
0.01457389774719799    12  5  9  5
-0.0188829140304053    12  5  9  9
-0.01389909512452696    12  5  10  4
-0.01936463358247647    12  5  10  10
-0.01389909512452697    12  5  11  3
-0.01936463358247642    12  5  11  11
-0.01177264721836085    12  5  12  1
0.0314524321565971    12  5  12  5
0.003804784040291047    12  6  3  2
0.003030957396357363    12  6  6  1
-0.0001363776690490327    12  6  6  5
0.003595376863043185    12  6  8  3
0.003752434543714373    12  6  9  6
0.01081775971508231    12  6  11  2
0.002228961031030143    12  6  11  8
0.01337671979850251    12  6  12  6
0.003804784040290915    12  7  4  2
0.003030957396357223    12  7  7  1
-0.0001363776690489328    12  7  7  5
0.003595376863043152    12  7  8  4
0.003752434543714364    12  7  9  7
0.0108177597150823    12  7  10  2
0.002228961031030205    12  7  10  8
0.01337671979850252    12  7  12  7
0.02721332222868374    12  8  2  1
-0.03521481168072525    12  8  5  2
0.02959920106825459    12  8  6  3
0.0295992010682548    12  8  7  4
0.008066959314589514    12  8  8  1
0.01804623205337643    12  8  8  5
-2.700964452095889e-15    12  8  8  8
0.0005789769403419611    12  8  9  2
0.02880794710264817    12  8  9  8
0.008078602927354392    12  8  10  7
0.008078602927354591    12  8  11  6
0.01484737225420001    12  8  12  2
0.0167111368485466    12  8  12  8
-0.04050610798457773    12  9  1  1
0.01496204791760063    12  9  2  2
-0.02463069501244809    12  9  3  3
-0.02463069501244801    12  9  4  4
-0.03236079611503576    12  9  5  1
0.008372382951729394    12  9  5  5
-0.004092560633421399    12  9  6  6
-0.004092560633421425    12  9  7  7
-0.01231598475990398    12  9  8  2
0.01242790936567769    12  9  8  8
0.006890898107465546    12  9  9  1
0.01043040025886563    12  9  9  5
-0.00300240366298102    12  9  9  9
0.001897102361018638    12  9  10  4
-0.01813831001426473    12  9  10  10
0.0018971023610187    12  9  11  3
-0.01813831001426462    12  9  11  11
0.007137275791140461    12  9  12  1
-0.01669395083584068    12  9  12  5
0.03191162836886495    12  9  12  9
0.04768680964802634    12  10  4  1
-0.008148673097802093    12  10  5  4
0.04285736471695246    12  10  7  2
0.011773251377814    12  10  8  7
0.01624562304317403    12  10  9  4
0.007421875463164992    12  10  10  1
0.009323386021318842    12  10  10  5
-0.00747409357924288    12  10  10  9
-0.01663921949856632    12  10  12  4
0.04444288503964298    12  10  12  10
0.04768680964802641    12  11  3  1
-0.008148673097802095    12  11  5  3
0.04285736471695257    12  11  6  2
0.01177325137781406    12  11  8  6
0.01624562304317403    12  11  9  3
0.007421875463164938    12  11  11  1
0.009323386021318847    12  11  11  5
-0.0074740935792429    12  11  11  9
-0.01663921949856632    12  11  12  3
0.04444288503964301    12  11  12  11
0.403790717236889    12  12  1  1
0.3720860924498965    12  12  2  2
0.3768664701437023    12  12  3  3
0.3768664701437021    12  12  4  4
0.02334890500994206    12  12  5  1
0.3690737646160726    12  12  5  5
0.3523902011016518    12  12  6  6
0.3523902011016514    12  12  7  7
0.04323069908548875    12  12  8  2
0.2706111685651844    12  12  8  8
-0.00292475663895077    12  12  9  1
-0.0628257124397676    12  12  9  5
-1.051676107310939e-15    12  12  9  8
0.3206703554720691    12  12  9  9
0.05343017263804724    12  12  10  4
0.3350900974549348    12  12  10  10
0.053430172638047    12  12  11  3
0.3350900974549343    12  12  11  11
0.03318634671103793    12  12  12  1
-0.03258186042590466    12  12  12  5
1.002263593299912e-15    12  12  12  8
-0.01121265056687459    12  12  12  9
0.3492200119901931    12  12  12  12
-0.01875581555490888    13  1  4  2
-0.01911566384170053    13  1  7  1
0.004559674257851134    13  1  7  5
-0.0122771362038194    13  1  8  4
-0.004543988911023065    13  1  9  7
-0.01287144599347166    13  1  10  2
-0.008543382533586235    13  1  10  8
-0.009482127354482761    13  1  12  7
0.01755364701489399    13  1  13  1
-0.02248030949019349    13  2  4  1
0.002995598988374271    13  2  5  4
-0.01961631341690286    13  2  7  2
-0.01261510563233935    13  2  8  7
-0.006537194397387798    13  2  9  4
-0.01613129376200518    13  2  10  1
0.003606132834073448    13  2  10  5
-0.0008168432145750512    13  2  10  9
-0.01075160948349321    13  2  12  4
-0.008455882526779743    13  2  12  10
0.01971026563435784    13  2  13  2
-0.004801055289093062    13  3  6  4
-0.00480105528909304    13  3  7  3
-0.005485827454054305    13  3  10  6
-0.00548582745405429    13  3  11  7
0.00618602855549378    13  3  13  3
-0.04938615205762211    13  4  2  1
0.03999625226576431    13  4  5  2
-0.04973791300106802    13  4  6  3
-0.05934002357925384    13  4  7  4
-0.02974018559013031    13  4  8  1
-0.004211877117894558    13  4  8  5
-0.02040348744137065    13  4  9  2
-0.006735717428163686    13  4  9  8
-0.04352222275960906    13  4  10  7
-0.03255056785150069    13  4  11  6
-0.0376724726846319    13  4  12  2
-0.01530897004102097    13  4  12  8
0.05490234450770404    13  4  13  4
0.002265737264824828    13  5  4  2
-0.0002010580947627642    13  5  7  1
-0.002742727238592545    13  5  7  5
0.001602610200540572    13  5  8  4
0.006541885584264728    13  5  9  7
0.006026957895721806    13  5  10  2
-0.00224803489113655    13  5  10  8
0.007701901215165766    13  5  12  7
-0.002515354519445589    13  5  13  1
0.009272403270180507    13  5  13  5
-0.004351443673747762    13  6  4  3
-0.002827505901776223    13  6  7  6
-0.006242313066601926    13  6  10  3
-0.006242313066601919    13  6  11  4
-0.001021352362181101    13  6  11  10
0.007273278063790799    13  6  13  6
-0.1232372469823411    13  7  1  1
-0.09216756165106503    13  7  2  2
-0.09425103907718758    13  7  3  3
-0.102953926424683    13  7  4  4
-0.02295248561192043    13  7  5  1
-0.08977942738020345    13  7  5  5
-0.0783681308864109    13  7  6  6
-0.08402314268996283    13  7  7  7
-0.03367777921668739    13  7  8  2
-0.03311273086519981    13  7  8  8
0.009555294606421337    13  7  9  1
0.04915478792993253    13  7  9  5
-0.05969864092690026    13  7  9  9
-0.06223531404359965    13  7  10  4
-0.07266131008243899    13  7  10  10
-0.0497506879103958    13  7  11  3
-0.07061860535807675    13  7  11  11
-0.03659286249936058    13  7  12  1
0.02164507167406832    13  7  12  5
-8.872309353851563e-05    13  7  12  9
-0.06714572066359779    13  7  12  12
0.0696281702166278    13  7  13  7
-0.02568238299911847    13  8  4  1
0.005107615701616971    13  8  5  4
-0.02527312259893472    13  8  7  2
-0.003613827268085321    13  8  8  7
-0.003202690263120891    13  8  9  4
-0.009720743756231161    13  8  10  1
-0.006277111905638504    13  8  10  5
-0.002842667899887234    13  8  10  9
0.0009531473689168933    13  8  12  4
-0.01831757285194171    13  8  12  10
0.007080501973860758    13  8  13  2
0.01639510419849961    13  8  13  8
-0.01144620568599797    13  9  4  2
-0.007981664580695054    13  9  7  1
0.01298631177202415    13  9  7  5
-0.0002910951045852466    13  9  8  4
-7.641361415057443e-05    13  9  9  7
-0.0009907711896982717    13  9  10  2
-0.006231197646602777    13  9  10  8
-4.680891001373393e-07    13  9  12  7
0.001672108560781738    13  9  13  1
-0.0008540404201894812    13  9  13  5
0.01070361711867783    13  9  13  9
-0.07802261311344115    13  10  2  1
0.08089449302020332    13  10  5  2
-0.08336278831159914    13  10  6  3
-0.1003298695594461    13  10  7  4
-0.03470163255931171    13  10  8  1
-0.02674760698700401    13  10  8  5
-1.981054209565514e-15    13  10  8  8
-0.01709923551244691    13  10  9  2
-0.04617717060838916    13  10  9  8
-0.02832876851580416    13  10  10  7
-0.02574514022108514    13  10  11  6
-0.03843203021765174    13  10  12  2
-0.02998682163269246    13  10  12  8
0.05197729705432957    13  10  13  4
0.0973909994042734    13  10  13  10
-0.008483540623923624    13  11  6  4
-0.00848354062392361    13  11  7  3
-0.001291814147359689    13  11  10  6
-0.001291814147359651    13  11  11  7
0.00336481487543332    13  11  13  3
0.008729507002935592    13  11  13  11
-0.02530757404294146    13  12  4  2
-0.02230325928542072    13  12  7  1
0.01753452330116886    13  12  7  5
-0.008855973924078036    13  12  8  4
-0.003058953380651385    13  12  9  7
-0.005176822881232706    13  12  10  2
-0.01038779204018518    13  12  10  8
7.102534096660187e-05    13  12  12  7
0.01046208596243525    13  12  13  1
0.0006237135833857645    13  12  13  5
0.0101945886434506    13  12  13  9
0.02178913400551779    13  12  13  12
0.4032999752498176    13  13  1  1
0.3667142854927318    13  13  2  2
0.3617068801686469    13  13  3  3
0.3845721605344601    13  13  4  4
0.02724928475445468    13  13  5  1
0.3621020383394979    13  13  5  5
0.3412933461080727    13  13  6  6
0.3649278695979203    13  13  7  7
0.04501725114201004    13  13  8  2
0.2723801665273405    13  13  8  8
-0.0117179736792738    13  13  9  1
-0.06465287582669491    13  13  9  5
0.315317607506266    13  13  9  9
0.07216445203884915    13  13  10  4
0.3458804399192285    13  13  10  10
0.06829034753167573    13  13  11  3
0.3230703406362859    13  13  11  11
0.04458618516541969    13  13  12  1
-0.02664464289042935    13  13  12  5
-0.001857594656989918    13  13  12  9
0.3330317382698988    13  13  12  12
-0.08060480015620759    13  13  13  7
0.3555105901571003    13  13  13  13
-0.01875581555490877    14  1  3  2
-0.01911566384170048    14  1  6  1
0.004559674257851067    14  1  6  5
-0.01227713620381935    14  1  8  3
-0.00454398891102305    14  1  9  6
-0.01287144599347161    14  1  11  2
-0.00854338253358617    14  1  11  8
-0.009482127354482792    14  1  12  6
0.01755364701489387    14  1  14  1
-0.02248030949019329    14  2  3  1
0.002995598988374201    14  2  5  3
-0.01961631341690271    14  2  6  2
-0.01261510563233932    14  2  8  6
-0.006537194397387742    14  2  9  3
-0.01613129376200511    14  2  11  1
0.003606132834073484    14  2  11  5
-0.0008168432145750396    14  2  11  9
-0.01075160948349325    14  2  12  3
-0.008455882526779566    14  2  12  11
0.01971026563435772    14  2  14  2
-0.04938615205762184    14  3  2  1
0.03999625226576401    14  3  5  2
-0.05934002357925378    14  3  6  3
-0.0497379130010675    14  3  7  4
-0.0297401855901302    14  3  8  1
-0.004211877117894473    14  3  8  5
-0.02040348744137059    14  3  9  2
-0.006735717428163521    14  3  9  8
-0.03255056785150047    14  3  10  7
-0.04352222275960919    14  3  11  6
-0.03767247268463178    14  3  12  2
-0.01530897004102088    14  3  12  8
0.0425302873967164    14  3  13  4
0.04524766730346267    14  3  13  10
0.05490234450770374    14  3  14  3
-0.004801055289093015    14  4  6  4
-0.004801055289092994    14  4  7  3
-0.005485827454054299    14  4  10  6
-0.005485827454054283    14  4  11  7
0.006186028555493761    14  4  13  3
0.003364814875433284    14  4  13  11
0.006186028555493746    14  4  14  4
0.002265737264824741    14  5  3  2
-0.0002010580947628269    14  5  6  1
-0.002742727238592478    14  5  6  5
0.001602610200540555    14  5  8  3
0.006541885584264722    14  5  9  6
0.006026957895721797    14  5  11  2
-0.002248034891136625    14  5  11  8
0.007701901215165769    14  5  12  6
-0.002515354519445577    14  5  14  1
0.009272403270180496    14  5  14  5
-0.1232372469823409    14  6  1  1
-0.09216756165106486    14  6  2  2
-0.1029539264246829    14  6  3  3
-0.09425103907718733    14  6  4  4
-0.02295248561192047    14  6  5  1
-0.08977942738020342    14  6  5  5
-0.08402314268996319    14  6  6  6
-0.07836813088641037    14  6  7  7
-0.0336777792166874    14  6  8  2
-0.03311273086519974    14  6  8  8
0.009555294606421365    14  6  9  1
0.04915478792993255    14  6  9  5
-0.05969864092690019    14  6  9  9
-0.0497506879103959    14  6  10  4
-0.07061860535807676    14  6  10  10
-0.06223531404359962    14  6  11  3
-0.07266131008243869    14  6  11  11
-0.03659286249936061    14  6  12  1
0.02164507167406831    14  6  12  5
-8.872309353851854e-05    14  6  12  9
-0.0671457206635977    14  6  12  12
0.0550816140890463    14  6  13  7
-0.07627951352283437    14  6  13  13
0.06962817021662768    14  6  14  6
-0.004351443673747669    14  7  4  3
-0.002827505901776119    14  7  7  6
-0.006242313066601915    14  7  10  3
-0.006242313066601912    14  7  11  4
-0.001021352362181014    14  7  11  10
0.007273278063790787    14  7  13  6
0.007273278063790767    14  7  14  7
-0.02568238299911838    14  8  3  1
0.005107615701616965    14  8  5  3
-0.02527312259893475    14  8  6  2
-0.003613827268085312    14  8  8  6
-0.003202690263120911    14  8  9  3
-0.009720743756231096    14  8  11  1
-0.006277111905638494    14  8  11  5
-0.002842667899887303    14  8  11  9
0.0009531473689169023    14  8  12  3
-0.01831757285194167    14  8  12  11
0.007080501973860658    14  8  14  2
0.01639510419849969    14  8  14  8
-0.01144620568599794    14  9  3  2
-0.007981664580695038    14  9  6  1
0.01298631177202416    14  9  6  5
-0.0002910951045852275    14  9  8  3
-7.641361415058597e-05    14  9  9  6
-0.0009907711896982483    14  9  11  2
-0.006231197646602845    14  9  11  8
-4.680891001616864e-07    14  9  12  6
0.001672108560781687    14  9  14  1
-0.0008540404201894036    14  9  14  5
0.01070361711867784    14  9  14  9
-0.008483540623923624    14  10  6  4
-0.008483540623923608    14  10  7  3
-0.001291814147359673    14  10  10  6
-0.001291814147359636    14  10  11  7
0.003364814875433303    14  10  13  3
0.008729507002935594    14  10  13  11
0.003364814875433269    14  10  14  4
0.008729507002935594    14  10  14  10
-0.07802261311344107    14  11  2  1
0.0808944930202033    14  11  5  2
-0.1003298695594464    14  11  6  3
-0.08336278831159881    14  11  7  4
-0.03470163255931162    14  11  8  1
-0.02674760698700404    14  11  8  5
-1.97086270914415e-15    14  11  8  8
-0.01709923551244685    14  11  9  2
-0.0461771706083892    14  11  9  8
-0.02574514022108474    14  11  10  7
-0.0283287685158043    14  11  11  6
-0.03843203021765163    14  11  12  2
-0.02998682163269244    14  11  12  8
0.04524766730346279    14  11  13  4
0.07993198539840222    14  11  13  10
0.05197729705432913    14  11  14  3
0.09739099940427337    14  11  14  11
-0.02530757404294146    14  12  3  2
-0.02230325928542074    14  12  6  1
0.01753452330116887    14  12  6  5
-0.008855973924078031    14  12  8  3
-0.003058953380651426    14  12  9  6
-0.005176822881232646    14  12  11  2
-0.0103877920401853    14  12  11  8
7.102534096656309e-05    14  12  12  6
0.01046208596243514    14  12  14  1
0.0006237135833858676    14  12  14  5
0.01019458864345059    14  12  14  9
0.02178913400551775    14  12  14  12
0.01143264018290678    14  13  4  3
0.01181726174492421    14  13  7  6
0.001937052253586725    14  13  10  3
0.001937052253586711    14  13  11  4
0.01140504964147138    14  13  11  10
-0.002162643316686646    14  13  13  6
-0.002162643316686566    14  13  14  7
0.01238308004341756    14  13  14  13
0.4032999752498173    14  14  1  1
0.3667142854927316    14  14  2  2
0.38457216053446    14  14  3  3
0.3617068801686466    14  14  4  4